+ 0.01 0 1 tcp 1040 ------- 2 0.0 3.0 0 0 1 500
- 0.01 0 1 tcp 1040 ------- 2 0.0 3.0 0 0 1 500
r 0.011832 0 1 tcp 1040 ------- 2 0.0 3.0 0 0 1 500
+ 0.011832 1 2 tcp 1040 ------- 2 0.0 3.0 0 0 1 500
- 0.011832 1 2 tcp 1040 ------- 2 0.0 3.0 0 0 1 500
+ 0.02 0 1 tcp 1040 ------- 2 0.0 3.0 0 1 2 500
- 0.02 0 1 tcp 1040 ------- 2 0.0 3.0 0 1 2 500
r 0.021832 0 1 tcp 1040 ------- 2 0.0 3.0 0 1 2 500
+ 0.021832 1 2 tcp 1040 ------- 2 0.0 3.0 0 1 2 500
- 0.021832 1 2 tcp 1040 ------- 2 0.0 3.0 0 1 2 500
+ 0.03 0 1 tcp 1040 ------- 2 0.0 3.0 0 2 3 500
- 0.03 0 1 tcp 1040 ------- 2 0.0 3.0 0 2 3 500
r 0.031832 0 1 tcp 1040 ------- 2 0.0 3.0 0 2 3 500
+ 0.031832 1 2 tcp 1040 ------- 2 0.0 3.0 0 2 3 500
- 0.031832 1 2 tcp 1040 ------- 2 0.0 3.0 0 2 3 500
+ 0.04 0 1 tcp 1040 ------- 2 0.0 3.0 0 3 4 500
- 0.04 0 1 tcp 1040 ------- 2 0.0 3.0 0 3 4 500
r 0.041832 0 1 tcp 1040 ------- 2 0.0 3.0 0 3 4 500
+ 0.041832 1 2 tcp 1040 ------- 2 0.0 3.0 0 3 4 500
- 0.041832 1 2 tcp 1040 ------- 2 0.0 3.0 0 3 4 500
+ 0.05 0 1 tcp 1040 ------- 2 0.0 3.0 0 4 5 500
- 0.05 0 1 tcp 1040 ------- 2 0.0 3.0 0 4 5 500
r 0.051832 0 1 tcp 1040 ------- 2 0.0 3.0 0 4 5 500
+ 0.051832 1 2 tcp 1040 ------- 2 0.0 3.0 0 4 5 500
- 0.051832 1 2 tcp 1040 ------- 2 0.0 3.0 0 4 5 500
+ 0.06 0 1 tcp 1040 ------- 2 0.0 3.0 0 5 6 500
- 0.06 0 1 tcp 1040 ------- 2 0.0 3.0 0 5 6 500
r 0.061832 0 1 tcp 1040 ------- 2 0.0 3.0 0 5 6 500
+ 0.061832 1 2 tcp 1040 ------- 2 0.0 3.0 0 5 6 500
- 0.061832 1 2 tcp 1040 ------- 2 0.0 3.0 0 5 6 500
+ 0.07 0 1 tcp 1040 ------- 2 0.0 3.0 0 6 7 500
- 0.07 0 1 tcp 1040 ------- 2 0.0 3.0 0 6 7 500
r 0.070152 1 2 tcp 1040 ------- 2 0.0 3.0 0 0 1 500
+ 0.070152 2 3 tcp 1040 ------- 2 0.0 3.0 0 0 1 500
- 0.070152 2 3 tcp 1040 ------- 2 0.0 3.0 0 0 1 500
r 0.071832 0 1 tcp 1040 ------- 2 0.0 3.0 0 6 7 500
+ 0.071832 1 2 tcp 1040 ------- 2 0.0 3.0 0 6 7 500
- 0.071832 1 2 tcp 1040 ------- 2 0.0 3.0 0 6 7 500
r 0.071984 2 3 tcp 1040 ------- 2 0.0 3.0 0 0 1 500
+ 0.08 0 1 tcp 1040 ------- 2 0.0 3.0 0 7 8 500
- 0.08 0 1 tcp 1040 ------- 2 0.0 3.0 0 7 8 500
r 0.080152 1 2 tcp 1040 ------- 2 0.0 3.0 0 1 2 500
+ 0.080152 2 3 tcp 1040 ------- 2 0.0 3.0 0 1 2 500
- 0.080152 2 3 tcp 1040 ------- 2 0.0 3.0 0 1 2 500
r 0.081832 0 1 tcp 1040 ------- 2 0.0 3.0 0 7 8 500
+ 0.081832 1 2 tcp 1040 ------- 2 0.0 3.0 0 7 8 500
- 0.081832 1 2 tcp 1040 ------- 2 0.0 3.0 0 7 8 500
r 0.081984 2 3 tcp 1040 ------- 2 0.0 3.0 0 1 2 500
+ 0.09 0 1 tcp 1040 ------- 2 0.0 3.0 0 8 9 500
- 0.09 0 1 tcp 1040 ------- 2 0.0 3.0 0 8 9 500
r 0.090152 1 2 tcp 1040 ------- 2 0.0 3.0 0 2 3 500
+ 0.090152 2 3 tcp 1040 ------- 2 0.0 3.0 0 2 3 500
- 0.090152 2 3 tcp 1040 ------- 2 0.0 3.0 0 2 3 500
r 0.091832 0 1 tcp 1040 ------- 2 0.0 3.0 0 8 9 500
+ 0.091832 1 2 tcp 1040 ------- 2 0.0 3.0 0 8 9 500
- 0.091832 1 2 tcp 1040 ------- 2 0.0 3.0 0 8 9 500
r 0.091984 2 3 tcp 1040 ------- 2 0.0 3.0 0 2 3 500
+ 0.1 0 1 tcp 1040 ------- 2 0.0 3.0 0 9 10 500
- 0.1 0 1 tcp 1040 ------- 2 0.0 3.0 0 9 10 500
r 0.100152 1 2 tcp 1040 ------- 2 0.0 3.0 0 3 4 500
+ 0.100152 2 3 tcp 1040 ------- 2 0.0 3.0 0 3 4 500
- 0.100152 2 3 tcp 1040 ------- 2 0.0 3.0 0 3 4 500
r 0.101832 0 1 tcp 1040 ------- 2 0.0 3.0 0 9 10 500
+ 0.101832 1 2 tcp 1040 ------- 2 0.0 3.0 0 9 10 500
- 0.101832 1 2 tcp 1040 ------- 2 0.0 3.0 0 9 10 500
r 0.101984 2 3 tcp 1040 ------- 2 0.0 3.0 0 3 4 500
+ 0.11 0 1 tcp 1040 ------- 2 0.0 3.0 0 10 11 500
- 0.11 0 1 tcp 1040 ------- 2 0.0 3.0 0 10 11 500
r 0.110152 1 2 tcp 1040 ------- 2 0.0 3.0 0 4 5 500
+ 0.110152 2 3 tcp 1040 ------- 2 0.0 3.0 0 4 5 500
- 0.110152 2 3 tcp 1040 ------- 2 0.0 3.0 0 4 5 500
r 0.111832 0 1 tcp 1040 ------- 2 0.0 3.0 0 10 11 500
+ 0.111832 1 2 tcp 1040 ------- 2 0.0 3.0 0 10 11 500
- 0.111832 1 2 tcp 1040 ------- 2 0.0 3.0 0 10 11 500
r 0.111984 2 3 tcp 1040 ------- 2 0.0 3.0 0 4 5 500
+ 0.12 0 1 tcp 1040 ------- 2 0.0 3.0 0 11 12 500
- 0.12 0 1 tcp 1040 ------- 2 0.0 3.0 0 11 12 500
r 0.120152 1 2 tcp 1040 ------- 2 0.0 3.0 0 5 6 500
+ 0.120152 2 3 tcp 1040 ------- 2 0.0 3.0 0 5 6 500
- 0.120152 2 3 tcp 1040 ------- 2 0.0 3.0 0 5 6 500
r 0.121832 0 1 tcp 1040 ------- 2 0.0 3.0 0 11 12 500
+ 0.121832 1 2 tcp 1040 ------- 2 0.0 3.0 0 11 12 500
- 0.121832 1 2 tcp 1040 ------- 2 0.0 3.0 0 11 12 500
r 0.121984 2 3 tcp 1040 ------- 2 0.0 3.0 0 5 6 500
+ 0.13 0 1 tcp 1040 ------- 2 0.0 3.0 0 12 13 500
- 0.13 0 1 tcp 1040 ------- 2 0.0 3.0 0 12 13 500
r 0.130152 1 2 tcp 1040 ------- 2 0.0 3.0 0 6 7 500
+ 0.130152 2 3 tcp 1040 ------- 2 0.0 3.0 0 6 7 500
- 0.130152 2 3 tcp 1040 ------- 2 0.0 3.0 0 6 7 500
r 0.131832 0 1 tcp 1040 ------- 2 0.0 3.0 0 12 13 500
+ 0.131832 1 2 tcp 1040 ------- 2 0.0 3.0 0 12 13 500
- 0.131832 1 2 tcp 1040 ------- 2 0.0 3.0 0 12 13 500
r 0.131984 2 3 tcp 1040 ------- 2 0.0 3.0 0 6 7 500
+ 0.14 0 1 tcp 1040 ------- 2 0.0 3.0 0 13 14 500
- 0.14 0 1 tcp 1040 ------- 2 0.0 3.0 0 13 14 500
r 0.140152 1 2 tcp 1040 ------- 2 0.0 3.0 0 7 8 500
+ 0.140152 2 3 tcp 1040 ------- 2 0.0 3.0 0 7 8 500
- 0.140152 2 3 tcp 1040 ------- 2 0.0 3.0 0 7 8 500
r 0.141832 0 1 tcp 1040 ------- 2 0.0 3.0 0 13 14 500
+ 0.141832 1 2 tcp 1040 ------- 2 0.0 3.0 0 13 14 500
- 0.141832 1 2 tcp 1040 ------- 2 0.0 3.0 0 13 14 500
r 0.141984 2 3 tcp 1040 ------- 2 0.0 3.0 0 7 8 500
+ 0.15 0 1 tcp 1040 ------- 2 0.0 3.0 0 14 15 500
- 0.15 0 1 tcp 1040 ------- 2 0.0 3.0 0 14 15 500
r 0.150152 1 2 tcp 1040 ------- 2 0.0 3.0 0 8 9 500
+ 0.150152 2 3 tcp 1040 ------- 2 0.0 3.0 0 8 9 500
- 0.150152 2 3 tcp 1040 ------- 2 0.0 3.0 0 8 9 500
r 0.151832 0 1 tcp 1040 ------- 2 0.0 3.0 0 14 15 500
+ 0.151832 1 2 tcp 1040 ------- 2 0.0 3.0 0 14 15 500
- 0.151832 1 2 tcp 1040 ------- 2 0.0 3.0 0 14 15 500
r 0.151984 2 3 tcp 1040 ------- 2 0.0 3.0 0 8 9 500
+ 0.16 0 1 tcp 1040 ------- 2 0.0 3.0 0 15 16 500
- 0.16 0 1 tcp 1040 ------- 2 0.0 3.0 0 15 16 500
r 0.160152 1 2 tcp 1040 ------- 2 0.0 3.0 0 9 10 500
+ 0.160152 2 3 tcp 1040 ------- 2 0.0 3.0 0 9 10 500
- 0.160152 2 3 tcp 1040 ------- 2 0.0 3.0 0 9 10 500
r 0.161832 0 1 tcp 1040 ------- 2 0.0 3.0 0 15 16 500
+ 0.161832 1 2 tcp 1040 ------- 2 0.0 3.0 0 15 16 500
- 0.161832 1 2 tcp 1040 ------- 2 0.0 3.0 0 15 16 500
r 0.161984 2 3 tcp 1040 ------- 2 0.0 3.0 0 9 10 500
+ 0.17 0 1 tcp 1040 ------- 2 0.0 3.0 0 16 17 500
- 0.17 0 1 tcp 1040 ------- 2 0.0 3.0 0 16 17 500
r 0.170152 1 2 tcp 1040 ------- 2 0.0 3.0 0 10 11 500
+ 0.170152 2 3 tcp 1040 ------- 2 0.0 3.0 0 10 11 500
- 0.170152 2 3 tcp 1040 ------- 2 0.0 3.0 0 10 11 500
r 0.171832 0 1 tcp 1040 ------- 2 0.0 3.0 0 16 17 500
+ 0.171832 1 2 tcp 1040 ------- 2 0.0 3.0 0 16 17 500
- 0.171832 1 2 tcp 1040 ------- 2 0.0 3.0 0 16 17 500
r 0.171984 2 3 tcp 1040 ------- 2 0.0 3.0 0 10 11 500
+ 0.18 0 1 tcp 1040 ------- 2 0.0 3.0 0 17 18 500
- 0.18 0 1 tcp 1040 ------- 2 0.0 3.0 0 17 18 500
r 0.180152 1 2 tcp 1040 ------- 2 0.0 3.0 0 11 12 500
+ 0.180152 2 3 tcp 1040 ------- 2 0.0 3.0 0 11 12 500
- 0.180152 2 3 tcp 1040 ------- 2 0.0 3.0 0 11 12 500
r 0.181832 0 1 tcp 1040 ------- 2 0.0 3.0 0 17 18 500
+ 0.181832 1 2 tcp 1040 ------- 2 0.0 3.0 0 17 18 500
- 0.181832 1 2 tcp 1040 ------- 2 0.0 3.0 0 17 18 500
r 0.181984 2 3 tcp 1040 ------- 2 0.0 3.0 0 11 12 500
+ 0.19 0 1 tcp 1040 ------- 2 0.0 3.0 0 18 19 500
- 0.19 0 1 tcp 1040 ------- 2 0.0 3.0 0 18 19 500
r 0.190152 1 2 tcp 1040 ------- 2 0.0 3.0 0 12 13 500
+ 0.190152 2 3 tcp 1040 ------- 2 0.0 3.0 0 12 13 500
- 0.190152 2 3 tcp 1040 ------- 2 0.0 3.0 0 12 13 500
r 0.191832 0 1 tcp 1040 ------- 2 0.0 3.0 0 18 19 500
+ 0.191832 1 2 tcp 1040 ------- 2 0.0 3.0 0 18 19 500
- 0.191832 1 2 tcp 1040 ------- 2 0.0 3.0 0 18 19 500
r 0.191984 2 3 tcp 1040 ------- 2 0.0 3.0 0 12 13 500
+ 0.2 0 1 tcp 1040 ------- 2 0.0 3.0 0 19 20 500
- 0.2 0 1 tcp 1040 ------- 2 0.0 3.0 0 19 20 500
r 0.200152 1 2 tcp 1040 ------- 2 0.0 3.0 0 13 14 500
+ 0.200152 2 3 tcp 1040 ------- 2 0.0 3.0 0 13 14 500
- 0.200152 2 3 tcp 1040 ------- 2 0.0 3.0 0 13 14 500
r 0.201832 0 1 tcp 1040 ------- 2 0.0 3.0 0 19 20 500
+ 0.201832 1 2 tcp 1040 ------- 2 0.0 3.0 0 19 20 500
- 0.201832 1 2 tcp 1040 ------- 2 0.0 3.0 0 19 20 500
r 0.201984 2 3 tcp 1040 ------- 2 0.0 3.0 0 13 14 500
+ 0.21 0 1 tcp 1040 ------- 2 0.0 3.0 0 20 21 500
- 0.21 0 1 tcp 1040 ------- 2 0.0 3.0 0 20 21 500
r 0.210152 1 2 tcp 1040 ------- 2 0.0 3.0 0 14 15 500
+ 0.210152 2 3 tcp 1040 ------- 2 0.0 3.0 0 14 15 500
- 0.210152 2 3 tcp 1040 ------- 2 0.0 3.0 0 14 15 500
r 0.211832 0 1 tcp 1040 ------- 2 0.0 3.0 0 20 21 500
+ 0.211832 1 2 tcp 1040 ------- 2 0.0 3.0 0 20 21 500
- 0.211832 1 2 tcp 1040 ------- 2 0.0 3.0 0 20 21 500
r 0.211984 2 3 tcp 1040 ------- 2 0.0 3.0 0 14 15 500
+ 0.22 0 1 tcp 1040 ------- 2 0.0 3.0 0 21 22 500
- 0.22 0 1 tcp 1040 ------- 2 0.0 3.0 0 21 22 500
r 0.220152 1 2 tcp 1040 ------- 2 0.0 3.0 0 15 16 500
+ 0.220152 2 3 tcp 1040 ------- 2 0.0 3.0 0 15 16 500
- 0.220152 2 3 tcp 1040 ------- 2 0.0 3.0 0 15 16 500
r 0.221832 0 1 tcp 1040 ------- 2 0.0 3.0 0 21 22 500
+ 0.221832 1 2 tcp 1040 ------- 2 0.0 3.0 0 21 22 500
- 0.221832 1 2 tcp 1040 ------- 2 0.0 3.0 0 21 22 500
r 0.221984 2 3 tcp 1040 ------- 2 0.0 3.0 0 15 16 500
+ 0.23 0 1 tcp 1040 ------- 2 0.0 3.0 0 22 23 500
- 0.23 0 1 tcp 1040 ------- 2 0.0 3.0 0 22 23 500
r 0.230152 1 2 tcp 1040 ------- 2 0.0 3.0 0 16 17 500
+ 0.230152 2 3 tcp 1040 ------- 2 0.0 3.0 0 16 17 500
- 0.230152 2 3 tcp 1040 ------- 2 0.0 3.0 0 16 17 500
r 0.231832 0 1 tcp 1040 ------- 2 0.0 3.0 0 22 23 500
+ 0.231832 1 2 tcp 1040 ------- 2 0.0 3.0 0 22 23 500
- 0.231832 1 2 tcp 1040 ------- 2 0.0 3.0 0 22 23 500
r 0.231984 2 3 tcp 1040 ------- 2 0.0 3.0 0 16 17 500
+ 0.24 0 1 tcp 1040 ------- 2 0.0 3.0 0 23 24 500
- 0.24 0 1 tcp 1040 ------- 2 0.0 3.0 0 23 24 500
r 0.240152 1 2 tcp 1040 ------- 2 0.0 3.0 0 17 18 500
+ 0.240152 2 3 tcp 1040 ------- 2 0.0 3.0 0 17 18 500
- 0.240152 2 3 tcp 1040 ------- 2 0.0 3.0 0 17 18 500
r 0.241832 0 1 tcp 1040 ------- 2 0.0 3.0 0 23 24 500
+ 0.241832 1 2 tcp 1040 ------- 2 0.0 3.0 0 23 24 500
- 0.241832 1 2 tcp 1040 ------- 2 0.0 3.0 0 23 24 500
r 0.241984 2 3 tcp 1040 ------- 2 0.0 3.0 0 17 18 500
+ 0.25 0 1 tcp 1040 ------- 2 0.0 3.0 0 24 25 500
- 0.25 0 1 tcp 1040 ------- 2 0.0 3.0 0 24 25 500
r 0.250152 1 2 tcp 1040 ------- 2 0.0 3.0 0 18 19 500
+ 0.250152 2 3 tcp 1040 ------- 2 0.0 3.0 0 18 19 500
- 0.250152 2 3 tcp 1040 ------- 2 0.0 3.0 0 18 19 500
r 0.251832 0 1 tcp 1040 ------- 2 0.0 3.0 0 24 25 500
+ 0.251832 1 2 tcp 1040 ------- 2 0.0 3.0 0 24 25 500
- 0.251832 1 2 tcp 1040 ------- 2 0.0 3.0 0 24 25 500
r 0.251984 2 3 tcp 1040 ------- 2 0.0 3.0 0 18 19 500
+ 0.26 0 1 tcp 1040 ------- 2 0.0 3.0 0 25 26 500
- 0.26 0 1 tcp 1040 ------- 2 0.0 3.0 0 25 26 500
r 0.260152 1 2 tcp 1040 ------- 2 0.0 3.0 0 19 20 500
+ 0.260152 2 3 tcp 1040 ------- 2 0.0 3.0 0 19 20 500
- 0.260152 2 3 tcp 1040 ------- 2 0.0 3.0 0 19 20 500
r 0.261832 0 1 tcp 1040 ------- 2 0.0 3.0 0 25 26 500
+ 0.261832 1 2 tcp 1040 ------- 2 0.0 3.0 0 25 26 500
- 0.261832 1 2 tcp 1040 ------- 2 0.0 3.0 0 25 26 500
r 0.261984 2 3 tcp 1040 ------- 2 0.0 3.0 0 19 20 500
+ 0.27 0 1 tcp 1040 ------- 2 0.0 3.0 0 26 27 500
- 0.27 0 1 tcp 1040 ------- 2 0.0 3.0 0 26 27 500
r 0.270152 1 2 tcp 1040 ------- 2 0.0 3.0 0 20 21 500
+ 0.270152 2 3 tcp 1040 ------- 2 0.0 3.0 0 20 21 500
- 0.270152 2 3 tcp 1040 ------- 2 0.0 3.0 0 20 21 500
r 0.271832 0 1 tcp 1040 ------- 2 0.0 3.0 0 26 27 500
+ 0.271832 1 2 tcp 1040 ------- 2 0.0 3.0 0 26 27 500
- 0.271832 1 2 tcp 1040 ------- 2 0.0 3.0 0 26 27 500
r 0.271984 2 3 tcp 1040 ------- 2 0.0 3.0 0 20 21 500
+ 0.28 0 1 tcp 1040 ------- 2 0.0 3.0 0 27 28 500
- 0.28 0 1 tcp 1040 ------- 2 0.0 3.0 0 27 28 500
r 0.280152 1 2 tcp 1040 ------- 2 0.0 3.0 0 21 22 500
+ 0.280152 2 3 tcp 1040 ------- 2 0.0 3.0 0 21 22 500
- 0.280152 2 3 tcp 1040 ------- 2 0.0 3.0 0 21 22 500
r 0.281832 0 1 tcp 1040 ------- 2 0.0 3.0 0 27 28 500
+ 0.281832 1 2 tcp 1040 ------- 2 0.0 3.0 0 27 28 500
- 0.281832 1 2 tcp 1040 ------- 2 0.0 3.0 0 27 28 500
r 0.281984 2 3 tcp 1040 ------- 2 0.0 3.0 0 21 22 500
+ 0.29 0 1 tcp 1040 ------- 2 0.0 3.0 0 28 29 500
- 0.29 0 1 tcp 1040 ------- 2 0.0 3.0 0 28 29 500
r 0.290152 1 2 tcp 1040 ------- 2 0.0 3.0 0 22 23 500
+ 0.290152 2 3 tcp 1040 ------- 2 0.0 3.0 0 22 23 500
- 0.290152 2 3 tcp 1040 ------- 2 0.0 3.0 0 22 23 500
r 0.291832 0 1 tcp 1040 ------- 2 0.0 3.0 0 28 29 500
+ 0.291832 1 2 tcp 1040 ------- 2 0.0 3.0 0 28 29 500
- 0.291832 1 2 tcp 1040 ------- 2 0.0 3.0 0 28 29 500
r 0.291984 2 3 tcp 1040 ------- 2 0.0 3.0 0 22 23 500
+ 0.3 0 1 tcp 1040 ------- 2 0.0 3.0 0 29 30 500
- 0.3 0 1 tcp 1040 ------- 2 0.0 3.0 0 29 30 500
r 0.300152 1 2 tcp 1040 ------- 2 0.0 3.0 0 23 24 500
+ 0.300152 2 3 tcp 1040 ------- 2 0.0 3.0 0 23 24 500
- 0.300152 2 3 tcp 1040 ------- 2 0.0 3.0 0 23 24 500
r 0.301832 0 1 tcp 1040 ------- 2 0.0 3.0 0 29 30 500
+ 0.301832 1 2 tcp 1040 ------- 2 0.0 3.0 0 29 30 500
- 0.301832 1 2 tcp 1040 ------- 2 0.0 3.0 0 29 30 500
r 0.301984 2 3 tcp 1040 ------- 2 0.0 3.0 0 23 24 500
+ 0.31 0 1 tcp 1040 ------- 2 0.0 3.0 0 30 31 500
- 0.31 0 1 tcp 1040 ------- 2 0.0 3.0 0 30 31 500
r 0.310152 1 2 tcp 1040 ------- 2 0.0 3.0 0 24 25 500
+ 0.310152 2 3 tcp 1040 ------- 2 0.0 3.0 0 24 25 500
- 0.310152 2 3 tcp 1040 ------- 2 0.0 3.0 0 24 25 500
r 0.311832 0 1 tcp 1040 ------- 2 0.0 3.0 0 30 31 500
+ 0.311832 1 2 tcp 1040 ------- 2 0.0 3.0 0 30 31 500
- 0.311832 1 2 tcp 1040 ------- 2 0.0 3.0 0 30 31 500
r 0.311984 2 3 tcp 1040 ------- 2 0.0 3.0 0 24 25 500
+ 0.32 0 1 tcp 1040 ------- 2 0.0 3.0 0 31 32 500
- 0.32 0 1 tcp 1040 ------- 2 0.0 3.0 0 31 32 500
r 0.320152 1 2 tcp 1040 ------- 2 0.0 3.0 0 25 26 500
+ 0.320152 2 3 tcp 1040 ------- 2 0.0 3.0 0 25 26 500
- 0.320152 2 3 tcp 1040 ------- 2 0.0 3.0 0 25 26 500
r 0.321832 0 1 tcp 1040 ------- 2 0.0 3.0 0 31 32 500
+ 0.321832 1 2 tcp 1040 ------- 2 0.0 3.0 0 31 32 500
- 0.321832 1 2 tcp 1040 ------- 2 0.0 3.0 0 31 32 500
r 0.321984 2 3 tcp 1040 ------- 2 0.0 3.0 0 25 26 500
+ 0.33 0 1 tcp 1040 ------- 2 0.0 3.0 0 32 33 500
- 0.33 0 1 tcp 1040 ------- 2 0.0 3.0 0 32 33 500
r 0.330152 1 2 tcp 1040 ------- 2 0.0 3.0 0 26 27 500
+ 0.330152 2 3 tcp 1040 ------- 2 0.0 3.0 0 26 27 500
- 0.330152 2 3 tcp 1040 ------- 2 0.0 3.0 0 26 27 500
r 0.331832 0 1 tcp 1040 ------- 2 0.0 3.0 0 32 33 500
+ 0.331832 1 2 tcp 1040 ------- 2 0.0 3.0 0 32 33 500
- 0.331832 1 2 tcp 1040 ------- 2 0.0 3.0 0 32 33 500
r 0.331984 2 3 tcp 1040 ------- 2 0.0 3.0 0 26 27 500
+ 0.34 0 1 tcp 1040 ------- 2 0.0 3.0 0 33 34 500
- 0.34 0 1 tcp 1040 ------- 2 0.0 3.0 0 33 34 500
r 0.340152 1 2 tcp 1040 ------- 2 0.0 3.0 0 27 28 500
+ 0.340152 2 3 tcp 1040 ------- 2 0.0 3.0 0 27 28 500
- 0.340152 2 3 tcp 1040 ------- 2 0.0 3.0 0 27 28 500
r 0.341832 0 1 tcp 1040 ------- 2 0.0 3.0 0 33 34 500
+ 0.341832 1 2 tcp 1040 ------- 2 0.0 3.0 0 33 34 500
- 0.341832 1 2 tcp 1040 ------- 2 0.0 3.0 0 33 34 500
r 0.341984 2 3 tcp 1040 ------- 2 0.0 3.0 0 27 28 500
+ 0.35 0 1 tcp 1040 ------- 2 0.0 3.0 0 34 35 500
- 0.35 0 1 tcp 1040 ------- 2 0.0 3.0 0 34 35 500
r 0.350152 1 2 tcp 1040 ------- 2 0.0 3.0 0 28 29 500
+ 0.350152 2 3 tcp 1040 ------- 2 0.0 3.0 0 28 29 500
- 0.350152 2 3 tcp 1040 ------- 2 0.0 3.0 0 28 29 500
r 0.351832 0 1 tcp 1040 ------- 2 0.0 3.0 0 34 35 500
+ 0.351832 1 2 tcp 1040 ------- 2 0.0 3.0 0 34 35 500
- 0.351832 1 2 tcp 1040 ------- 2 0.0 3.0 0 34 35 500
r 0.351984 2 3 tcp 1040 ------- 2 0.0 3.0 0 28 29 500
+ 0.36 0 1 tcp 1040 ------- 2 0.0 3.0 0 35 36 500
- 0.36 0 1 tcp 1040 ------- 2 0.0 3.0 0 35 36 500
r 0.360152 1 2 tcp 1040 ------- 2 0.0 3.0 0 29 30 500
+ 0.360152 2 3 tcp 1040 ------- 2 0.0 3.0 0 29 30 500
- 0.360152 2 3 tcp 1040 ------- 2 0.0 3.0 0 29 30 500
r 0.361832 0 1 tcp 1040 ------- 2 0.0 3.0 0 35 36 500
+ 0.361832 1 2 tcp 1040 ------- 2 0.0 3.0 0 35 36 500
- 0.361832 1 2 tcp 1040 ------- 2 0.0 3.0 0 35 36 500
r 0.361984 2 3 tcp 1040 ------- 2 0.0 3.0 0 29 30 500
+ 0.37 0 1 tcp 1040 ------- 2 0.0 3.0 0 36 37 500
- 0.37 0 1 tcp 1040 ------- 2 0.0 3.0 0 36 37 500
r 0.370152 1 2 tcp 1040 ------- 2 0.0 3.0 0 30 31 500
+ 0.370152 2 3 tcp 1040 ------- 2 0.0 3.0 0 30 31 500
- 0.370152 2 3 tcp 1040 ------- 2 0.0 3.0 0 30 31 500
r 0.371832 0 1 tcp 1040 ------- 2 0.0 3.0 0 36 37 500
+ 0.371832 1 2 tcp 1040 ------- 2 0.0 3.0 0 36 37 500
- 0.371832 1 2 tcp 1040 ------- 2 0.0 3.0 0 36 37 500
r 0.371984 2 3 tcp 1040 ------- 2 0.0 3.0 0 30 31 500
+ 0.38 0 1 tcp 1040 ------- 2 0.0 3.0 0 37 38 500
- 0.38 0 1 tcp 1040 ------- 2 0.0 3.0 0 37 38 500
r 0.380152 1 2 tcp 1040 ------- 2 0.0 3.0 0 31 32 500
+ 0.380152 2 3 tcp 1040 ------- 2 0.0 3.0 0 31 32 500
- 0.380152 2 3 tcp 1040 ------- 2 0.0 3.0 0 31 32 500
r 0.381832 0 1 tcp 1040 ------- 2 0.0 3.0 0 37 38 500
+ 0.381832 1 2 tcp 1040 ------- 2 0.0 3.0 0 37 38 500
- 0.381832 1 2 tcp 1040 ------- 2 0.0 3.0 0 37 38 500
r 0.381984 2 3 tcp 1040 ------- 2 0.0 3.0 0 31 32 500
+ 0.39 0 1 tcp 1040 ------- 2 0.0 3.0 0 38 39 500
- 0.39 0 1 tcp 1040 ------- 2 0.0 3.0 0 38 39 500
r 0.390152 1 2 tcp 1040 ------- 2 0.0 3.0 0 32 33 500
+ 0.390152 2 3 tcp 1040 ------- 2 0.0 3.0 0 32 33 500
- 0.390152 2 3 tcp 1040 ------- 2 0.0 3.0 0 32 33 500
r 0.391832 0 1 tcp 1040 ------- 2 0.0 3.0 0 38 39 500
+ 0.391832 1 2 tcp 1040 ------- 2 0.0 3.0 0 38 39 500
- 0.391832 1 2 tcp 1040 ------- 2 0.0 3.0 0 38 39 500
r 0.391984 2 3 tcp 1040 ------- 2 0.0 3.0 0 32 33 500
+ 0.4 0 1 tcp 1040 ------- 2 0.0 3.0 0 39 40 500
- 0.4 0 1 tcp 1040 ------- 2 0.0 3.0 0 39 40 500
r 0.400152 1 2 tcp 1040 ------- 2 0.0 3.0 0 33 34 500
+ 0.400152 2 3 tcp 1040 ------- 2 0.0 3.0 0 33 34 500
- 0.400152 2 3 tcp 1040 ------- 2 0.0 3.0 0 33 34 500
r 0.401832 0 1 tcp 1040 ------- 2 0.0 3.0 0 39 40 500
+ 0.401832 1 2 tcp 1040 ------- 2 0.0 3.0 0 39 40 500
- 0.401832 1 2 tcp 1040 ------- 2 0.0 3.0 0 39 40 500
r 0.401984 2 3 tcp 1040 ------- 2 0.0 3.0 0 33 34 500
+ 0.41 0 1 tcp 1040 ------- 2 0.0 3.0 0 40 41 500
- 0.41 0 1 tcp 1040 ------- 2 0.0 3.0 0 40 41 500
r 0.410152 1 2 tcp 1040 ------- 2 0.0 3.0 0 34 35 500
+ 0.410152 2 3 tcp 1040 ------- 2 0.0 3.0 0 34 35 500
- 0.410152 2 3 tcp 1040 ------- 2 0.0 3.0 0 34 35 500
r 0.411832 0 1 tcp 1040 ------- 2 0.0 3.0 0 40 41 500
+ 0.411832 1 2 tcp 1040 ------- 2 0.0 3.0 0 40 41 500
- 0.411832 1 2 tcp 1040 ------- 2 0.0 3.0 0 40 41 500
r 0.411984 2 3 tcp 1040 ------- 2 0.0 3.0 0 34 35 500
+ 0.42 0 1 tcp 1040 ------- 2 0.0 3.0 0 41 42 500
- 0.42 0 1 tcp 1040 ------- 2 0.0 3.0 0 41 42 500
r 0.420152 1 2 tcp 1040 ------- 2 0.0 3.0 0 35 36 500
+ 0.420152 2 3 tcp 1040 ------- 2 0.0 3.0 0 35 36 500
- 0.420152 2 3 tcp 1040 ------- 2 0.0 3.0 0 35 36 500
r 0.421832 0 1 tcp 1040 ------- 2 0.0 3.0 0 41 42 500
+ 0.421832 1 2 tcp 1040 ------- 2 0.0 3.0 0 41 42 500
- 0.421832 1 2 tcp 1040 ------- 2 0.0 3.0 0 41 42 500
r 0.421984 2 3 tcp 1040 ------- 2 0.0 3.0 0 35 36 500
+ 0.43 0 1 tcp 1040 ------- 2 0.0 3.0 0 42 43 500
- 0.43 0 1 tcp 1040 ------- 2 0.0 3.0 0 42 43 500
r 0.430152 1 2 tcp 1040 ------- 2 0.0 3.0 0 36 37 500
+ 0.430152 2 3 tcp 1040 ------- 2 0.0 3.0 0 36 37 500
- 0.430152 2 3 tcp 1040 ------- 2 0.0 3.0 0 36 37 500
r 0.431832 0 1 tcp 1040 ------- 2 0.0 3.0 0 42 43 500
+ 0.431832 1 2 tcp 1040 ------- 2 0.0 3.0 0 42 43 500
- 0.431832 1 2 tcp 1040 ------- 2 0.0 3.0 0 42 43 500
r 0.431984 2 3 tcp 1040 ------- 2 0.0 3.0 0 36 37 500
+ 0.44 0 1 tcp 1040 ------- 2 0.0 3.0 0 43 44 500
- 0.44 0 1 tcp 1040 ------- 2 0.0 3.0 0 43 44 500
r 0.440152 1 2 tcp 1040 ------- 2 0.0 3.0 0 37 38 500
+ 0.440152 2 3 tcp 1040 ------- 2 0.0 3.0 0 37 38 500
- 0.440152 2 3 tcp 1040 ------- 2 0.0 3.0 0 37 38 500
r 0.441832 0 1 tcp 1040 ------- 2 0.0 3.0 0 43 44 500
+ 0.441832 1 2 tcp 1040 ------- 2 0.0 3.0 0 43 44 500
- 0.441832 1 2 tcp 1040 ------- 2 0.0 3.0 0 43 44 500
r 0.441984 2 3 tcp 1040 ------- 2 0.0 3.0 0 37 38 500
+ 0.45 0 1 tcp 1040 ------- 2 0.0 3.0 0 44 45 500
- 0.45 0 1 tcp 1040 ------- 2 0.0 3.0 0 44 45 500
r 0.450152 1 2 tcp 1040 ------- 2 0.0 3.0 0 38 39 500
+ 0.450152 2 3 tcp 1040 ------- 2 0.0 3.0 0 38 39 500
- 0.450152 2 3 tcp 1040 ------- 2 0.0 3.0 0 38 39 500
r 0.451832 0 1 tcp 1040 ------- 2 0.0 3.0 0 44 45 500
+ 0.451832 1 2 tcp 1040 ------- 2 0.0 3.0 0 44 45 500
- 0.451832 1 2 tcp 1040 ------- 2 0.0 3.0 0 44 45 500
r 0.451984 2 3 tcp 1040 ------- 2 0.0 3.0 0 38 39 500
+ 0.46 0 1 tcp 1040 ------- 2 0.0 3.0 0 45 46 500
- 0.46 0 1 tcp 1040 ------- 2 0.0 3.0 0 45 46 500
r 0.460152 1 2 tcp 1040 ------- 2 0.0 3.0 0 39 40 500
+ 0.460152 2 3 tcp 1040 ------- 2 0.0 3.0 0 39 40 500
- 0.460152 2 3 tcp 1040 ------- 2 0.0 3.0 0 39 40 500
r 0.461832 0 1 tcp 1040 ------- 2 0.0 3.0 0 45 46 500
+ 0.461832 1 2 tcp 1040 ------- 2 0.0 3.0 0 45 46 500
- 0.461832 1 2 tcp 1040 ------- 2 0.0 3.0 0 45 46 500
r 0.461984 2 3 tcp 1040 ------- 2 0.0 3.0 0 39 40 500
+ 0.47 0 1 tcp 1040 ------- 2 0.0 3.0 0 46 47 500
- 0.47 0 1 tcp 1040 ------- 2 0.0 3.0 0 46 47 500
r 0.470152 1 2 tcp 1040 ------- 2 0.0 3.0 0 40 41 500
+ 0.470152 2 3 tcp 1040 ------- 2 0.0 3.0 0 40 41 500
- 0.470152 2 3 tcp 1040 ------- 2 0.0 3.0 0 40 41 500
r 0.471832 0 1 tcp 1040 ------- 2 0.0 3.0 0 46 47 500
+ 0.471832 1 2 tcp 1040 ------- 2 0.0 3.0 0 46 47 500
- 0.471832 1 2 tcp 1040 ------- 2 0.0 3.0 0 46 47 500
r 0.471984 2 3 tcp 1040 ------- 2 0.0 3.0 0 40 41 500
+ 0.48 0 1 tcp 1040 ------- 2 0.0 3.0 0 47 48 500
- 0.48 0 1 tcp 1040 ------- 2 0.0 3.0 0 47 48 500
r 0.480152 1 2 tcp 1040 ------- 2 0.0 3.0 0 41 42 500
+ 0.480152 2 3 tcp 1040 ------- 2 0.0 3.0 0 41 42 500
- 0.480152 2 3 tcp 1040 ------- 2 0.0 3.0 0 41 42 500
r 0.481832 0 1 tcp 1040 ------- 2 0.0 3.0 0 47 48 500
+ 0.481832 1 2 tcp 1040 ------- 2 0.0 3.0 0 47 48 500
- 0.481832 1 2 tcp 1040 ------- 2 0.0 3.0 0 47 48 500
r 0.481984 2 3 tcp 1040 ------- 2 0.0 3.0 0 41 42 500
+ 0.49 0 1 tcp 1040 ------- 2 0.0 3.0 0 48 49 500
- 0.49 0 1 tcp 1040 ------- 2 0.0 3.0 0 48 49 500
r 0.490152 1 2 tcp 1040 ------- 2 0.0 3.0 0 42 43 500
+ 0.490152 2 3 tcp 1040 ------- 2 0.0 3.0 0 42 43 500
- 0.490152 2 3 tcp 1040 ------- 2 0.0 3.0 0 42 43 500
r 0.491832 0 1 tcp 1040 ------- 2 0.0 3.0 0 48 49 500
+ 0.491832 1 2 tcp 1040 ------- 2 0.0 3.0 0 48 49 500
- 0.491832 1 2 tcp 1040 ------- 2 0.0 3.0 0 48 49 500
r 0.491984 2 3 tcp 1040 ------- 2 0.0 3.0 0 42 43 500
+ 0.5 0 1 tcp 1040 ------- 2 0.0 3.0 0 49 50 500
- 0.5 0 1 tcp 1040 ------- 2 0.0 3.0 0 49 50 500
r 0.500152 1 2 tcp 1040 ------- 2 0.0 3.0 0 43 44 500
+ 0.500152 2 3 tcp 1040 ------- 2 0.0 3.0 0 43 44 500
- 0.500152 2 3 tcp 1040 ------- 2 0.0 3.0 0 43 44 500
r 0.501832 0 1 tcp 1040 ------- 2 0.0 3.0 0 49 50 500
+ 0.501832 1 2 tcp 1040 ------- 2 0.0 3.0 0 49 50 500
- 0.501832 1 2 tcp 1040 ------- 2 0.0 3.0 0 49 50 500
r 0.501984 2 3 tcp 1040 ------- 2 0.0 3.0 0 43 44 500
+ 0.51 0 1 tcp 1040 ------- 2 0.0 3.0 0 50 51 500
- 0.51 0 1 tcp 1040 ------- 2 0.0 3.0 0 50 51 500
r 0.510152 1 2 tcp 1040 ------- 2 0.0 3.0 0 44 45 500
+ 0.510152 2 3 tcp 1040 ------- 2 0.0 3.0 0 44 45 500
- 0.510152 2 3 tcp 1040 ------- 2 0.0 3.0 0 44 45 500
r 0.511832 0 1 tcp 1040 ------- 2 0.0 3.0 0 50 51 500
+ 0.511832 1 2 tcp 1040 ------- 2 0.0 3.0 0 50 51 500
- 0.511832 1 2 tcp 1040 ------- 2 0.0 3.0 0 50 51 500
r 0.511984 2 3 tcp 1040 ------- 2 0.0 3.0 0 44 45 500
+ 0.52 0 1 tcp 1040 ------- 2 0.0 3.0 0 51 52 500
- 0.52 0 1 tcp 1040 ------- 2 0.0 3.0 0 51 52 500
r 0.520152 1 2 tcp 1040 ------- 2 0.0 3.0 0 45 46 500
+ 0.520152 2 3 tcp 1040 ------- 2 0.0 3.0 0 45 46 500
- 0.520152 2 3 tcp 1040 ------- 2 0.0 3.0 0 45 46 500
r 0.521832 0 1 tcp 1040 ------- 2 0.0 3.0 0 51 52 500
+ 0.521832 1 2 tcp 1040 ------- 2 0.0 3.0 0 51 52 500
- 0.521832 1 2 tcp 1040 ------- 2 0.0 3.0 0 51 52 500
r 0.521984 2 3 tcp 1040 ------- 2 0.0 3.0 0 45 46 500
+ 0.53 0 1 tcp 1040 ------- 2 0.0 3.0 0 52 53 500
- 0.53 0 1 tcp 1040 ------- 2 0.0 3.0 0 52 53 500
r 0.530152 1 2 tcp 1040 ------- 2 0.0 3.0 0 46 47 500
+ 0.530152 2 3 tcp 1040 ------- 2 0.0 3.0 0 46 47 500
- 0.530152 2 3 tcp 1040 ------- 2 0.0 3.0 0 46 47 500
r 0.531832 0 1 tcp 1040 ------- 2 0.0 3.0 0 52 53 500
+ 0.531832 1 2 tcp 1040 ------- 2 0.0 3.0 0 52 53 500
- 0.531832 1 2 tcp 1040 ------- 2 0.0 3.0 0 52 53 500
r 0.531984 2 3 tcp 1040 ------- 2 0.0 3.0 0 46 47 500
+ 0.54 0 1 tcp 1040 ------- 2 0.0 3.0 0 53 54 500
- 0.54 0 1 tcp 1040 ------- 2 0.0 3.0 0 53 54 500
r 0.540152 1 2 tcp 1040 ------- 2 0.0 3.0 0 47 48 500
+ 0.540152 2 3 tcp 1040 ------- 2 0.0 3.0 0 47 48 500
- 0.540152 2 3 tcp 1040 ------- 2 0.0 3.0 0 47 48 500
r 0.541832 0 1 tcp 1040 ------- 2 0.0 3.0 0 53 54 500
+ 0.541832 1 2 tcp 1040 ------- 2 0.0 3.0 0 53 54 500
- 0.541832 1 2 tcp 1040 ------- 2 0.0 3.0 0 53 54 500
r 0.541984 2 3 tcp 1040 ------- 2 0.0 3.0 0 47 48 500
+ 0.55 0 1 tcp 1040 ------- 2 0.0 3.0 0 54 55 500
- 0.55 0 1 tcp 1040 ------- 2 0.0 3.0 0 54 55 500
r 0.550152 1 2 tcp 1040 ------- 2 0.0 3.0 0 48 49 500
+ 0.550152 2 3 tcp 1040 ------- 2 0.0 3.0 0 48 49 500
- 0.550152 2 3 tcp 1040 ------- 2 0.0 3.0 0 48 49 500
r 0.551832 0 1 tcp 1040 ------- 2 0.0 3.0 0 54 55 500
+ 0.551832 1 2 tcp 1040 ------- 2 0.0 3.0 0 54 55 500
- 0.551832 1 2 tcp 1040 ------- 2 0.0 3.0 0 54 55 500
r 0.551984 2 3 tcp 1040 ------- 2 0.0 3.0 0 48 49 500
+ 0.56 0 1 tcp 1040 ------- 2 0.0 3.0 0 55 56 500
- 0.56 0 1 tcp 1040 ------- 2 0.0 3.0 0 55 56 500
r 0.560152 1 2 tcp 1040 ------- 2 0.0 3.0 0 49 50 500
+ 0.560152 2 3 tcp 1040 ------- 2 0.0 3.0 0 49 50 500
- 0.560152 2 3 tcp 1040 ------- 2 0.0 3.0 0 49 50 500
r 0.561832 0 1 tcp 1040 ------- 2 0.0 3.0 0 55 56 500
+ 0.561832 1 2 tcp 1040 ------- 2 0.0 3.0 0 55 56 500
- 0.561832 1 2 tcp 1040 ------- 2 0.0 3.0 0 55 56 500
r 0.561984 2 3 tcp 1040 ------- 2 0.0 3.0 0 49 50 500
+ 0.57 0 1 tcp 1040 ------- 2 0.0 3.0 0 56 57 500
- 0.57 0 1 tcp 1040 ------- 2 0.0 3.0 0 56 57 500
r 0.570152 1 2 tcp 1040 ------- 2 0.0 3.0 0 50 51 500
+ 0.570152 2 3 tcp 1040 ------- 2 0.0 3.0 0 50 51 500
- 0.570152 2 3 tcp 1040 ------- 2 0.0 3.0 0 50 51 500
r 0.571832 0 1 tcp 1040 ------- 2 0.0 3.0 0 56 57 500
+ 0.571832 1 2 tcp 1040 ------- 2 0.0 3.0 0 56 57 500
- 0.571832 1 2 tcp 1040 ------- 2 0.0 3.0 0 56 57 500
r 0.571984 2 3 tcp 1040 ------- 2 0.0 3.0 0 50 51 500
+ 0.58 0 1 tcp 1040 ------- 2 0.0 3.0 0 57 58 500
- 0.58 0 1 tcp 1040 ------- 2 0.0 3.0 0 57 58 500
r 0.580152 1 2 tcp 1040 ------- 2 0.0 3.0 0 51 52 500
+ 0.580152 2 3 tcp 1040 ------- 2 0.0 3.0 0 51 52 500
- 0.580152 2 3 tcp 1040 ------- 2 0.0 3.0 0 51 52 500
r 0.581832 0 1 tcp 1040 ------- 2 0.0 3.0 0 57 58 500
+ 0.581832 1 2 tcp 1040 ------- 2 0.0 3.0 0 57 58 500
- 0.581832 1 2 tcp 1040 ------- 2 0.0 3.0 0 57 58 500
r 0.581984 2 3 tcp 1040 ------- 2 0.0 3.0 0 51 52 500
+ 0.59 0 1 tcp 1040 ------- 2 0.0 3.0 0 58 59 500
- 0.59 0 1 tcp 1040 ------- 2 0.0 3.0 0 58 59 500
r 0.590152 1 2 tcp 1040 ------- 2 0.0 3.0 0 52 53 500
+ 0.590152 2 3 tcp 1040 ------- 2 0.0 3.0 0 52 53 500
- 0.590152 2 3 tcp 1040 ------- 2 0.0 3.0 0 52 53 500
r 0.591832 0 1 tcp 1040 ------- 2 0.0 3.0 0 58 59 500
+ 0.591832 1 2 tcp 1040 ------- 2 0.0 3.0 0 58 59 500
- 0.591832 1 2 tcp 1040 ------- 2 0.0 3.0 0 58 59 500
r 0.591984 2 3 tcp 1040 ------- 2 0.0 3.0 0 52 53 500
+ 0.6 0 1 tcp 1040 ------- 2 0.0 3.0 0 59 60 500
- 0.6 0 1 tcp 1040 ------- 2 0.0 3.0 0 59 60 500
r 0.600152 1 2 tcp 1040 ------- 2 0.0 3.0 0 53 54 500
+ 0.600152 2 3 tcp 1040 ------- 2 0.0 3.0 0 53 54 500
- 0.600152 2 3 tcp 1040 ------- 2 0.0 3.0 0 53 54 500
r 0.601832 0 1 tcp 1040 ------- 2 0.0 3.0 0 59 60 500
+ 0.601832 1 2 tcp 1040 ------- 2 0.0 3.0 0 59 60 500
- 0.601832 1 2 tcp 1040 ------- 2 0.0 3.0 0 59 60 500
r 0.601984 2 3 tcp 1040 ------- 2 0.0 3.0 0 53 54 500
+ 0.61 0 1 tcp 1040 ------- 2 0.0 3.0 0 60 61 500
- 0.61 0 1 tcp 1040 ------- 2 0.0 3.0 0 60 61 500
r 0.610152 1 2 tcp 1040 ------- 2 0.0 3.0 0 54 55 500
+ 0.610152 2 3 tcp 1040 ------- 2 0.0 3.0 0 54 55 500
- 0.610152 2 3 tcp 1040 ------- 2 0.0 3.0 0 54 55 500
r 0.611832 0 1 tcp 1040 ------- 2 0.0 3.0 0 60 61 500
+ 0.611832 1 2 tcp 1040 ------- 2 0.0 3.0 0 60 61 500
- 0.611832 1 2 tcp 1040 ------- 2 0.0 3.0 0 60 61 500
r 0.611984 2 3 tcp 1040 ------- 2 0.0 3.0 0 54 55 500
+ 0.62 0 1 tcp 1040 ------- 2 0.0 3.0 0 61 62 500
- 0.62 0 1 tcp 1040 ------- 2 0.0 3.0 0 61 62 500
r 0.620152 1 2 tcp 1040 ------- 2 0.0 3.0 0 55 56 500
+ 0.620152 2 3 tcp 1040 ------- 2 0.0 3.0 0 55 56 500
- 0.620152 2 3 tcp 1040 ------- 2 0.0 3.0 0 55 56 500
r 0.621832 0 1 tcp 1040 ------- 2 0.0 3.0 0 61 62 500
+ 0.621832 1 2 tcp 1040 ------- 2 0.0 3.0 0 61 62 500
- 0.621832 1 2 tcp 1040 ------- 2 0.0 3.0 0 61 62 500
r 0.621984 2 3 tcp 1040 ------- 2 0.0 3.0 0 55 56 500
+ 0.63 0 1 tcp 1040 ------- 2 0.0 3.0 0 62 63 500
- 0.63 0 1 tcp 1040 ------- 2 0.0 3.0 0 62 63 500
r 0.630152 1 2 tcp 1040 ------- 2 0.0 3.0 0 56 57 500
+ 0.630152 2 3 tcp 1040 ------- 2 0.0 3.0 0 56 57 500
- 0.630152 2 3 tcp 1040 ------- 2 0.0 3.0 0 56 57 500
r 0.631832 0 1 tcp 1040 ------- 2 0.0 3.0 0 62 63 500
+ 0.631832 1 2 tcp 1040 ------- 2 0.0 3.0 0 62 63 500
- 0.631832 1 2 tcp 1040 ------- 2 0.0 3.0 0 62 63 500
r 0.631984 2 3 tcp 1040 ------- 2 0.0 3.0 0 56 57 500
+ 0.64 0 1 tcp 1040 ------- 2 0.0 3.0 0 63 64 500
- 0.64 0 1 tcp 1040 ------- 2 0.0 3.0 0 63 64 500
r 0.640152 1 2 tcp 1040 ------- 2 0.0 3.0 0 57 58 500
+ 0.640152 2 3 tcp 1040 ------- 2 0.0 3.0 0 57 58 500
- 0.640152 2 3 tcp 1040 ------- 2 0.0 3.0 0 57 58 500
r 0.641832 0 1 tcp 1040 ------- 2 0.0 3.0 0 63 64 500
+ 0.641832 1 2 tcp 1040 ------- 2 0.0 3.0 0 63 64 500
- 0.641832 1 2 tcp 1040 ------- 2 0.0 3.0 0 63 64 500
r 0.641984 2 3 tcp 1040 ------- 2 0.0 3.0 0 57 58 500
+ 0.65 0 1 tcp 1040 ------- 2 0.0 3.0 0 64 65 500
- 0.65 0 1 tcp 1040 ------- 2 0.0 3.0 0 64 65 500
r 0.650152 1 2 tcp 1040 ------- 2 0.0 3.0 0 58 59 500
+ 0.650152 2 3 tcp 1040 ------- 2 0.0 3.0 0 58 59 500
- 0.650152 2 3 tcp 1040 ------- 2 0.0 3.0 0 58 59 500
r 0.651832 0 1 tcp 1040 ------- 2 0.0 3.0 0 64 65 500
+ 0.651832 1 2 tcp 1040 ------- 2 0.0 3.0 0 64 65 500
- 0.651832 1 2 tcp 1040 ------- 2 0.0 3.0 0 64 65 500
r 0.651984 2 3 tcp 1040 ------- 2 0.0 3.0 0 58 59 500
+ 0.66 0 1 tcp 1040 ------- 2 0.0 3.0 0 65 66 500
- 0.66 0 1 tcp 1040 ------- 2 0.0 3.0 0 65 66 500
r 0.660152 1 2 tcp 1040 ------- 2 0.0 3.0 0 59 60 500
+ 0.660152 2 3 tcp 1040 ------- 2 0.0 3.0 0 59 60 500
- 0.660152 2 3 tcp 1040 ------- 2 0.0 3.0 0 59 60 500
r 0.661832 0 1 tcp 1040 ------- 2 0.0 3.0 0 65 66 500
+ 0.661832 1 2 tcp 1040 ------- 2 0.0 3.0 0 65 66 500