+ 0 0 1 tcp 40 ------- 2 0.0 3.0 0 0 0 999
- 0 0 1 tcp 40 ------- 2 0.0 3.0 0 0 0 999
r 0.001032 0 1 tcp 40 ------- 2 0.0 3.0 0 0 0 999
+ 0.001032 1 2 tcp 40 ------- 2 0.0 3.0 0 0 0 999
- 0.001032 1 2 tcp 40 ------- 2 0.0 3.0 0 0 0 999
r 0.005352 1 2 tcp 40 ------- 2 0.0 3.0 0 0 0 999
+ 0.005352 2 3 tcp 40 ------- 2 0.0 3.0 0 0 0 999
- 0.005352 2 3 tcp 40 ------- 2 0.0 3.0 0 0 0 999
r 0.006384 2 3 tcp 40 ------- 2 0.0 3.0 0 0 0 999
+ 0.006384 3 2 ack 40 ------- 2 3.0 0.0 0 1 0 999
- 0.006384 3 2 ack 40 ------- 2 3.0 0.0 0 1 0 999
r 0.007416 3 2 ack 40 ------- 2 3.0 0.0 0 1 0 999
+ 0.007416 2 1 ack 40 ------- 2 3.0 0.0 0 1 0 999
- 0.007416 2 1 ack 40 ------- 2 3.0 0.0 0 1 0 999
+ 0.01 0 1 tcp 540 ------- 2 0.0 3.0 0 2 1 500
- 0.01 0 1 tcp 540 ------- 2 0.0 3.0 0 2 1 500
r 0.011432 0 1 tcp 540 ------- 2 0.0 3.0 0 2 1 500
+ 0.011432 1 2 tcp 540 ------- 2 0.0 3.0 0 2 1 500
- 0.011432 1 2 tcp 540 ------- 2 0.0 3.0 0 2 1 500
r 0.011736 2 1 ack 40 ------- 2 3.0 0.0 0 1 0 999
+ 0.011736 1 0 ack 40 ------- 2 3.0 0.0 0 1 0 999
- 0.011736 1 0 ack 40 ------- 2 3.0 0.0 0 1 0 999
r 0.012768 1 0 ack 40 ------- 2 3.0 0.0 0 1 0 999
+ 0.012768 0 1 tcp 1040 ------- 2 0.0 3.0 1 3 0 100
- 0.012768 0 1 tcp 1040 ------- 2 0.0 3.0 1 3 0 100
+ 0.012768 0 1 tcp 1040 ------- 2 0.0 3.0 2 4 0 100
- 0.0136 0 1 tcp 1040 ------- 2 0.0 3.0 2 4 0 100
r 0.0146 0 1 tcp 1040 ------- 2 0.0 3.0 1 3 0 100
+ 0.0146 1 2 tcp 1040 ------- 2 0.0 3.0 1 3 0 100
r 0.015432 0 1 tcp 1040 ------- 2 0.0 3.0 2 4 0 100
+ 0.015432 1 2 tcp 1040 ------- 2 0.0 3.0 2 4 0 100
- 0.015752 1 2 tcp 1040 ------- 2 0.0 3.0 1 3 0 100
r 0.019752 1 2 tcp 540 ------- 2 0.0 3.0 0 2 1 500
+ 0.019752 2 3 tcp 540 ------- 2 0.0 3.0 0 2 1 500
- 0.019752 2 3 tcp 540 ------- 2 0.0 3.0 0 2 1 500
+ 0.02 0 1 tcp 540 ------- 2 0.0 3.0 0 5 2 500
- 0.02 0 1 tcp 540 ------- 2 0.0 3.0 0 5 2 500
r 0.021184 2 3 tcp 540 ------- 2 0.0 3.0 0 2 1 500
r 0.021432 0 1 tcp 540 ------- 2 0.0 3.0 0 5 2 500
+ 0.021432 1 2 tcp 540 ------- 2 0.0 3.0 0 5 2 500
- 0.024072 1 2 tcp 1040 ------- 2 0.0 3.0 2 4 0 100
r 0.028072 1 2 tcp 1040 ------- 2 0.0 3.0 1 3 0 100
+ 0.028072 2 3 tcp 1040 ------- 2 0.0 3.0 1 3 0 100
- 0.028072 2 3 tcp 1040 ------- 2 0.0 3.0 1 3 0 100
r 0.029904 2 3 tcp 1040 ------- 2 0.0 3.0 1 3 0 100
+ 0.029904 3 2 ack 40 ------- 2 3.0 0.0 1 6 0 999
- 0.029904 3 2 ack 40 ------- 2 3.0 0.0 1 6 0 999
+ 0.03 0 1 tcp 540 ------- 2 0.0 3.0 0 7 3 500
- 0.03 0 1 tcp 540 ------- 2 0.0 3.0 0 7 3 500
r 0.030936 3 2 ack 40 ------- 2 3.0 0.0 1 6 0 999
+ 0.030936 2 1 ack 40 ------- 2 3.0 0.0 1 6 0 999
- 0.030936 2 1 ack 40 ------- 2 3.0 0.0 1 6 0 999
r 0.031432 0 1 tcp 540 ------- 2 0.0 3.0 0 7 3 500
+ 0.031432 1 2 tcp 540 ------- 2 0.0 3.0 0 7 3 500
- 0.032392 1 2 tcp 540 ------- 2 0.0 3.0 0 5 2 500
r 0.035256 2 1 ack 40 ------- 2 3.0 0.0 1 6 0 999
+ 0.035256 1 0 ack 40 ------- 2 3.0 0.0 1 6 0 999
- 0.035256 1 0 ack 40 ------- 2 3.0 0.0 1 6 0 999
r 0.036288 1 0 ack 40 ------- 2 3.0 0.0 1 6 0 999
+ 0.036288 0 1 tcp 1040 ------- 2 0.0 3.0 3 8 0 100
- 0.036288 0 1 tcp 1040 ------- 2 0.0 3.0 3 8 0 100
+ 0.036288 0 1 tcp 1040 ------- 2 0.0 3.0 4 9 0 100
r 0.036392 1 2 tcp 1040 ------- 2 0.0 3.0 2 4 0 100
+ 0.036392 2 3 tcp 1040 ------- 2 0.0 3.0 2 4 0 100
- 0.036392 2 3 tcp 1040 ------- 2 0.0 3.0 2 4 0 100
- 0.036712 1 2 tcp 540 ------- 2 0.0 3.0 0 7 3 500
- 0.03712 0 1 tcp 1040 ------- 2 0.0 3.0 4 9 0 100
r 0.03812 0 1 tcp 1040 ------- 2 0.0 3.0 3 8 0 100
+ 0.03812 1 2 tcp 1040 ------- 2 0.0 3.0 3 8 0 100
r 0.038224 2 3 tcp 1040 ------- 2 0.0 3.0 2 4 0 100
+ 0.038224 3 2 ack 40 ------- 2 3.0 0.0 2 10 0 999
- 0.038224 3 2 ack 40 ------- 2 3.0 0.0 2 10 0 999
r 0.038952 0 1 tcp 1040 ------- 2 0.0 3.0 4 9 0 100
+ 0.038952 1 2 tcp 1040 ------- 2 0.0 3.0 4 9 0 100
r 0.039256 3 2 ack 40 ------- 2 3.0 0.0 2 10 0 999
+ 0.039256 2 1 ack 40 ------- 2 3.0 0.0 2 10 0 999
- 0.039256 2 1 ack 40 ------- 2 3.0 0.0 2 10 0 999
+ 0.04 0 1 tcp 540 ------- 2 0.0 3.0 0 11 4 500
- 0.04 0 1 tcp 540 ------- 2 0.0 3.0 0 11 4 500
r 0.040712 1 2 tcp 540 ------- 2 0.0 3.0 0 5 2 500
+ 0.040712 2 3 tcp 540 ------- 2 0.0 3.0 0 5 2 500
- 0.040712 2 3 tcp 540 ------- 2 0.0 3.0 0 5 2 500
- 0.041032 1 2 tcp 1040 ------- 2 0.0 3.0 3 8 0 100
r 0.041432 0 1 tcp 540 ------- 2 0.0 3.0 0 11 4 500
+ 0.041432 1 2 tcp 540 ------- 2 0.0 3.0 0 11 4 500
r 0.042144 2 3 tcp 540 ------- 2 0.0 3.0 0 5 2 500
r 0.043576 2 1 ack 40 ------- 2 3.0 0.0 2 10 0 999
+ 0.043576 1 0 ack 40 ------- 2 3.0 0.0 2 10 0 999
- 0.043576 1 0 ack 40 ------- 2 3.0 0.0 2 10 0 999
r 0.044608 1 0 ack 40 ------- 2 3.0 0.0 2 10 0 999
+ 0.044608 0 1 tcp 1040 ------- 2 0.0 3.0 5 12 0 100
- 0.044608 0 1 tcp 1040 ------- 2 0.0 3.0 5 12 0 100
+ 0.044608 0 1 tcp 1040 ------- 2 0.0 3.0 6 13 0 100
r 0.045032 1 2 tcp 540 ------- 2 0.0 3.0 0 7 3 500
+ 0.045032 2 3 tcp 540 ------- 2 0.0 3.0 0 7 3 500
- 0.045032 2 3 tcp 540 ------- 2 0.0 3.0 0 7 3 500
- 0.04544 0 1 tcp 1040 ------- 2 0.0 3.0 6 13 0 100
r 0.04644 0 1 tcp 1040 ------- 2 0.0 3.0 5 12 0 100
+ 0.04644 1 2 tcp 1040 ------- 2 0.0 3.0 5 12 0 100
r 0.046464 2 3 tcp 540 ------- 2 0.0 3.0 0 7 3 500
r 0.047272 0 1 tcp 1040 ------- 2 0.0 3.0 6 13 0 100
+ 0.047272 1 2 tcp 1040 ------- 2 0.0 3.0 6 13 0 100
- 0.049352 1 2 tcp 1040 ------- 2 0.0 3.0 4 9 0 100
+ 0.05 0 1 tcp 540 ------- 2 0.0 3.0 0 14 5 500
- 0.05 0 1 tcp 540 ------- 2 0.0 3.0 0 14 5 500
r 0.051432 0 1 tcp 540 ------- 2 0.0 3.0 0 14 5 500
+ 0.051432 1 2 tcp 540 ------- 2 0.0 3.0 0 14 5 500
r 0.053352 1 2 tcp 1040 ------- 2 0.0 3.0 3 8 0 100
+ 0.053352 2 3 tcp 1040 ------- 2 0.0 3.0 3 8 0 100
- 0.053352 2 3 tcp 1040 ------- 2 0.0 3.0 3 8 0 100
r 0.055184 2 3 tcp 1040 ------- 2 0.0 3.0 3 8 0 100
+ 0.055184 3 2 ack 40 ------- 2 3.0 0.0 3 15 0 999
- 0.055184 3 2 ack 40 ------- 2 3.0 0.0 3 15 0 999
r 0.056216 3 2 ack 40 ------- 2 3.0 0.0 3 15 0 999
+ 0.056216 2 1 ack 40 ------- 2 3.0 0.0 3 15 0 999
- 0.056216 2 1 ack 40 ------- 2 3.0 0.0 3 15 0 999
- 0.057672 1 2 tcp 540 ------- 2 0.0 3.0 0 11 4 500
+ 0.06 0 1 tcp 540 ------- 2 0.0 3.0 0 16 6 500
- 0.06 0 1 tcp 540 ------- 2 0.0 3.0 0 16 6 500
r 0.060536 2 1 ack 40 ------- 2 3.0 0.0 3 15 0 999
+ 0.060536 1 0 ack 40 ------- 2 3.0 0.0 3 15 0 999
- 0.060536 1 0 ack 40 ------- 2 3.0 0.0 3 15 0 999
r 0.061432 0 1 tcp 540 ------- 2 0.0 3.0 0 16 6 500
+ 0.061432 1 2 tcp 540 ------- 2 0.0 3.0 0 16 6 500
r 0.061568 1 0 ack 40 ------- 2 3.0 0.0 3 15 0 999
+ 0.061568 0 1 tcp 1040 ------- 2 0.0 3.0 7 17 0 100
- 0.061568 0 1 tcp 1040 ------- 2 0.0 3.0 7 17 0 100
+ 0.061568 0 1 tcp 1040 ------- 2 0.0 3.0 8 18 0 100
r 0.061672 1 2 tcp 1040 ------- 2 0.0 3.0 4 9 0 100
+ 0.061672 2 3 tcp 1040 ------- 2 0.0 3.0 4 9 0 100
- 0.061672 2 3 tcp 1040 ------- 2 0.0 3.0 4 9 0 100
- 0.061992 1 2 tcp 1040 ------- 2 0.0 3.0 5 12 0 100
- 0.0624 0 1 tcp 1040 ------- 2 0.0 3.0 8 18 0 100
r 0.0634 0 1 tcp 1040 ------- 2 0.0 3.0 7 17 0 100
+ 0.0634 1 2 tcp 1040 ------- 2 0.0 3.0 7 17 0 100
r 0.063504 2 3 tcp 1040 ------- 2 0.0 3.0 4 9 0 100
+ 0.063504 3 2 ack 40 ------- 2 3.0 0.0 4 19 0 999
- 0.063504 3 2 ack 40 ------- 2 3.0 0.0 4 19 0 999
r 0.064232 0 1 tcp 1040 ------- 2 0.0 3.0 8 18 0 100
+ 0.064232 1 2 tcp 1040 ------- 2 0.0 3.0 8 18 0 100
r 0.064536 3 2 ack 40 ------- 2 3.0 0.0 4 19 0 999
+ 0.064536 2 1 ack 40 ------- 2 3.0 0.0 4 19 0 999
- 0.064536 2 1 ack 40 ------- 2 3.0 0.0 4 19 0 999
r 0.065992 1 2 tcp 540 ------- 2 0.0 3.0 0 11 4 500
+ 0.065992 2 3 tcp 540 ------- 2 0.0 3.0 0 11 4 500
- 0.065992 2 3 tcp 540 ------- 2 0.0 3.0 0 11 4 500
r 0.067424 2 3 tcp 540 ------- 2 0.0 3.0 0 11 4 500
r 0.068856 2 1 ack 40 ------- 2 3.0 0.0 4 19 0 999
+ 0.068856 1 0 ack 40 ------- 2 3.0 0.0 4 19 0 999
- 0.068856 1 0 ack 40 ------- 2 3.0 0.0 4 19 0 999
r 0.069888 1 0 ack 40 ------- 2 3.0 0.0 4 19 0 999
+ 0.069888 0 1 tcp 1040 ------- 2 0.0 3.0 9 20 0 100
- 0.069888 0 1 tcp 1040 ------- 2 0.0 3.0 9 20 0 100
+ 0.069888 0 1 tcp 1040 ------- 2 0.0 3.0 10 21 0 100
+ 0.07 0 1 tcp 540 ------- 2 0.0 3.0 0 22 7 500
- 0.070312 1 2 tcp 1040 ------- 2 0.0 3.0 6 13 0 100
- 0.07072 0 1 tcp 1040 ------- 2 0.0 3.0 10 21 0 100
- 0.071552 0 1 tcp 540 ------- 2 0.0 3.0 0 22 7 500
r 0.07172 0 1 tcp 1040 ------- 2 0.0 3.0 9 20 0 100
+ 0.07172 1 2 tcp 1040 ------- 2 0.0 3.0 9 20 0 100
r 0.072552 0 1 tcp 1040 ------- 2 0.0 3.0 10 21 0 100
+ 0.072552 1 2 tcp 1040 ------- 2 0.0 3.0 10 21 0 100
r 0.072984 0 1 tcp 540 ------- 2 0.0 3.0 0 22 7 500
+ 0.072984 1 2 tcp 540 ------- 2 0.0 3.0 0 22 7 500
r 0.074312 1 2 tcp 1040 ------- 2 0.0 3.0 5 12 0 100
+ 0.074312 2 3 tcp 1040 ------- 2 0.0 3.0 5 12 0 100
- 0.074312 2 3 tcp 1040 ------- 2 0.0 3.0 5 12 0 100
r 0.076144 2 3 tcp 1040 ------- 2 0.0 3.0 5 12 0 100
+ 0.076144 3 2 ack 40 ------- 2 3.0 0.0 5 23 0 999
- 0.076144 3 2 ack 40 ------- 2 3.0 0.0 5 23 0 999
r 0.077176 3 2 ack 40 ------- 2 3.0 0.0 5 23 0 999
+ 0.077176 2 1 ack 40 ------- 2 3.0 0.0 5 23 0 999
- 0.077176 2 1 ack 40 ------- 2 3.0 0.0 5 23 0 999
- 0.078632 1 2 tcp 540 ------- 2 0.0 3.0 0 14 5 500
+ 0.08 0 1 tcp 540 ------- 2 0.0 3.0 0 24 8 500
- 0.08 0 1 tcp 540 ------- 2 0.0 3.0 0 24 8 500
r 0.081432 0 1 tcp 540 ------- 2 0.0 3.0 0 24 8 500
+ 0.081432 1 2 tcp 540 ------- 2 0.0 3.0 0 24 8 500
r 0.081496 2 1 ack 40 ------- 2 3.0 0.0 5 23 0 999
+ 0.081496 1 0 ack 40 ------- 2 3.0 0.0 5 23 0 999
- 0.081496 1 0 ack 40 ------- 2 3.0 0.0 5 23 0 999
r 0.082528 1 0 ack 40 ------- 2 3.0 0.0 5 23 0 999
+ 0.082528 0 1 tcp 1040 ------- 2 0.0 3.0 11 25 0 100
- 0.082528 0 1 tcp 1040 ------- 2 0.0 3.0 11 25 0 100
+ 0.082528 0 1 tcp 1040 ------- 2 0.0 3.0 12 26 0 100
r 0.082632 1 2 tcp 1040 ------- 2 0.0 3.0 6 13 0 100
+ 0.082632 2 3 tcp 1040 ------- 2 0.0 3.0 6 13 0 100
- 0.082632 2 3 tcp 1040 ------- 2 0.0 3.0 6 13 0 100
- 0.082952 1 2 tcp 540 ------- 2 0.0 3.0 0 16 6 500
- 0.08336 0 1 tcp 1040 ------- 2 0.0 3.0 12 26 0 100
r 0.08436 0 1 tcp 1040 ------- 2 0.0 3.0 11 25 0 100
+ 0.08436 1 2 tcp 1040 ------- 2 0.0 3.0 11 25 0 100
r 0.084464 2 3 tcp 1040 ------- 2 0.0 3.0 6 13 0 100
+ 0.084464 3 2 ack 40 ------- 2 3.0 0.0 6 27 0 999
- 0.084464 3 2 ack 40 ------- 2 3.0 0.0 6 27 0 999
r 0.085192 0 1 tcp 1040 ------- 2 0.0 3.0 12 26 0 100
+ 0.085192 1 2 tcp 1040 ------- 2 0.0 3.0 12 26 0 100
r 0.085496 3 2 ack 40 ------- 2 3.0 0.0 6 27 0 999
+ 0.085496 2 1 ack 40 ------- 2 3.0 0.0 6 27 0 999
- 0.085496 2 1 ack 40 ------- 2 3.0 0.0 6 27 0 999
r 0.086952 1 2 tcp 540 ------- 2 0.0 3.0 0 14 5 500
+ 0.086952 2 3 tcp 540 ------- 2 0.0 3.0 0 14 5 500
- 0.086952 2 3 tcp 540 ------- 2 0.0 3.0 0 14 5 500
- 0.087272 1 2 tcp 1040 ------- 2 0.0 3.0 7 17 0 100
r 0.088384 2 3 tcp 540 ------- 2 0.0 3.0 0 14 5 500
r 0.089816 2 1 ack 40 ------- 2 3.0 0.0 6 27 0 999
+ 0.089816 1 0 ack 40 ------- 2 3.0 0.0 6 27 0 999
- 0.089816 1 0 ack 40 ------- 2 3.0 0.0 6 27 0 999
+ 0.09 0 1 tcp 540 ------- 2 0.0 3.0 0 28 9 500
- 0.09 0 1 tcp 540 ------- 2 0.0 3.0 0 28 9 500
r 0.090848 1 0 ack 40 ------- 2 3.0 0.0 6 27 0 999
+ 0.090848 0 1 tcp 1040 ------- 2 0.0 3.0 13 29 0 100
- 0.090848 0 1 tcp 1040 ------- 2 0.0 3.0 13 29 0 100
+ 0.090848 0 1 tcp 1040 ------- 2 0.0 3.0 14 30 0 100
r 0.091272 1 2 tcp 540 ------- 2 0.0 3.0 0 16 6 500
+ 0.091272 2 3 tcp 540 ------- 2 0.0 3.0 0 16 6 500
- 0.091272 2 3 tcp 540 ------- 2 0.0 3.0 0 16 6 500
r 0.091432 0 1 tcp 540 ------- 2 0.0 3.0 0 28 9 500
+ 0.091432 1 2 tcp 540 ------- 2 0.0 3.0 0 28 9 500
- 0.09168 0 1 tcp 1040 ------- 2 0.0 3.0 14 30 0 100
r 0.09268 0 1 tcp 1040 ------- 2 0.0 3.0 13 29 0 100
+ 0.09268 1 2 tcp 1040 ------- 2 0.0 3.0 13 29 0 100
r 0.092704 2 3 tcp 540 ------- 2 0.0 3.0 0 16 6 500
r 0.093512 0 1 tcp 1040 ------- 2 0.0 3.0 14 30 0 100
+ 0.093512 1 2 tcp 1040 ------- 2 0.0 3.0 14 30 0 100
- 0.095592 1 2 tcp 1040 ------- 2 0.0 3.0 8 18 0 100
r 0.099592 1 2 tcp 1040 ------- 2 0.0 3.0 7 17 0 100
+ 0.099592 2 3 tcp 1040 ------- 2 0.0 3.0 7 17 0 100
- 0.099592 2 3 tcp 1040 ------- 2 0.0 3.0 7 17 0 100
+ 0.1 0 1 tcp 540 ------- 2 0.0 3.0 0 31 10 500
- 0.1 0 1 tcp 540 ------- 2 0.0 3.0 0 31 10 500
r 0.101424 2 3 tcp 1040 ------- 2 0.0 3.0 7 17 0 100
+ 0.101424 3 2 ack 40 ------- 2 3.0 0.0 7 32 0 999
- 0.101424 3 2 ack 40 ------- 2 3.0 0.0 7 32 0 999
r 0.101432 0 1 tcp 540 ------- 2 0.0 3.0 0 31 10 500
+ 0.101432 1 2 tcp 540 ------- 2 0.0 3.0 0 31 10 500
r 0.102456 3 2 ack 40 ------- 2 3.0 0.0 7 32 0 999
+ 0.102456 2 1 ack 40 ------- 2 3.0 0.0 7 32 0 999
- 0.102456 2 1 ack 40 ------- 2 3.0 0.0 7 32 0 999
- 0.103912 1 2 tcp 1040 ------- 2 0.0 3.0 9 20 0 100
r 0.106776 2 1 ack 40 ------- 2 3.0 0.0 7 32 0 999
+ 0.106776 1 0 ack 40 ------- 2 3.0 0.0 7 32 0 999
- 0.106776 1 0 ack 40 ------- 2 3.0 0.0 7 32 0 999
r 0.107808 1 0 ack 40 ------- 2 3.0 0.0 7 32 0 999
+ 0.107808 0 1 tcp 1040 ------- 2 0.0 3.0 15 33 0 100
- 0.107808 0 1 tcp 1040 ------- 2 0.0 3.0 15 33 0 100
+ 0.107808 0 1 tcp 1040 ------- 2 0.0 3.0 16 34 0 100
r 0.107912 1 2 tcp 1040 ------- 2 0.0 3.0 8 18 0 100
+ 0.107912 2 3 tcp 1040 ------- 2 0.0 3.0 8 18 0 100
- 0.107912 2 3 tcp 1040 ------- 2 0.0 3.0 8 18 0 100
- 0.10864 0 1 tcp 1040 ------- 2 0.0 3.0 16 34 0 100
r 0.10964 0 1 tcp 1040 ------- 2 0.0 3.0 15 33 0 100
+ 0.10964 1 2 tcp 1040 ------- 2 0.0 3.0 15 33 0 100
r 0.109744 2 3 tcp 1040 ------- 2 0.0 3.0 8 18 0 100
+ 0.109744 3 2 ack 40 ------- 2 3.0 0.0 8 35 0 999
- 0.109744 3 2 ack 40 ------- 2 3.0 0.0 8 35 0 999
+ 0.11 0 1 tcp 540 ------- 2 0.0 3.0 0 36 11 500
- 0.11 0 1 tcp 540 ------- 2 0.0 3.0 0 36 11 500
r 0.110472 0 1 tcp 1040 ------- 2 0.0 3.0 16 34 0 100
+ 0.110472 1 2 tcp 1040 ------- 2 0.0 3.0 16 34 0 100
r 0.110776 3 2 ack 40 ------- 2 3.0 0.0 8 35 0 999
+ 0.110776 2 1 ack 40 ------- 2 3.0 0.0 8 35 0 999
- 0.110776 2 1 ack 40 ------- 2 3.0 0.0 8 35 0 999
r 0.111432 0 1 tcp 540 ------- 2 0.0 3.0 0 36 11 500
+ 0.111432 1 2 tcp 540 ------- 2 0.0 3.0 0 36 11 500
- 0.112232 1 2 tcp 1040 ------- 2 0.0 3.0 10 21 0 100
r 0.115096 2 1 ack 40 ------- 2 3.0 0.0 8 35 0 999
+ 0.115096 1 0 ack 40 ------- 2 3.0 0.0 8 35 0 999
- 0.115096 1 0 ack 40 ------- 2 3.0 0.0 8 35 0 999
r 0.116128 1 0 ack 40 ------- 2 3.0 0.0 8 35 0 999
+ 0.116128 0 1 tcp 1040 ------- 2 0.0 3.0 17 37 0 100
- 0.116128 0 1 tcp 1040 ------- 2 0.0 3.0 17 37 0 100
+ 0.116128 0 1 tcp 1040 ------- 2 0.0 3.0 18 38 0 100
r 0.116232 1 2 tcp 1040 ------- 2 0.0 3.0 9 20 0 100
+ 0.116232 2 3 tcp 1040 ------- 2 0.0 3.0 9 20 0 100
- 0.116232 2 3 tcp 1040 ------- 2 0.0 3.0 9 20 0 100
- 0.11696 0 1 tcp 1040 ------- 2 0.0 3.0 18 38 0 100
r 0.11796 0 1 tcp 1040 ------- 2 0.0 3.0 17 37 0 100
+ 0.11796 1 2 tcp 1040 ------- 2 0.0 3.0 17 37 0 100
r 0.118064 2 3 tcp 1040 ------- 2 0.0 3.0 9 20 0 100
+ 0.118064 3 2 ack 40 ------- 2 3.0 0.0 9 39 0 999
- 0.118064 3 2 ack 40 ------- 2 3.0 0.0 9 39 0 999
r 0.118792 0 1 tcp 1040 ------- 2 0.0 3.0 18 38 0 100
+ 0.118792 1 2 tcp 1040 ------- 2 0.0 3.0 18 38 0 100
r 0.119096 3 2 ack 40 ------- 2 3.0 0.0 9 39 0 999
+ 0.119096 2 1 ack 40 ------- 2 3.0 0.0 9 39 0 999
- 0.119096 2 1 ack 40 ------- 2 3.0 0.0 9 39 0 999
+ 0.12 0 1 tcp 540 ------- 2 0.0 3.0 0 40 12 500
- 0.12 0 1 tcp 540 ------- 2 0.0 3.0 0 40 12 500
- 0.120552 1 2 tcp 540 ------- 2 0.0 3.0 0 22 7 500
r 0.121432 0 1 tcp 540 ------- 2 0.0 3.0 0 40 12 500
+ 0.121432 1 2 tcp 540 ------- 2 0.0 3.0 0 40 12 500
r 0.123416 2 1 ack 40 ------- 2 3.0 0.0 9 39 0 999
+ 0.123416 1 0 ack 40 ------- 2 3.0 0.0 9 39 0 999
- 0.123416 1 0 ack 40 ------- 2 3.0 0.0 9 39 0 999
r 0.124448 1 0 ack 40 ------- 2 3.0 0.0 9 39 0 999
+ 0.124448 0 1 tcp 1040 ------- 2 0.0 3.0 19 41 0 100
- 0.124448 0 1 tcp 1040 ------- 2 0.0 3.0 19 41 0 100
+ 0.124448 0 1 tcp 1040 ------- 2 0.0 3.0 20 42 0 100
r 0.124552 1 2 tcp 1040 ------- 2 0.0 3.0 10 21 0 100
+ 0.124552 2 3 tcp 1040 ------- 2 0.0 3.0 10 21 0 100
- 0.124552 2 3 tcp 1040 ------- 2 0.0 3.0 10 21 0 100
- 0.124872 1 2 tcp 540 ------- 2 0.0 3.0 0 24 8 500
- 0.12528 0 1 tcp 1040 ------- 2 0.0 3.0 20 42 0 100
r 0.12628 0 1 tcp 1040 ------- 2 0.0 3.0 19 41 0 100
+ 0.12628 1 2 tcp 1040 ------- 2 0.0 3.0 19 41 0 100
r 0.126384 2 3 tcp 1040 ------- 2 0.0 3.0 10 21 0 100
+ 0.126384 3 2 ack 40 ------- 2 3.0 0.0 10 43 0 999
- 0.126384 3 2 ack 40 ------- 2 3.0 0.0 10 43 0 999
r 0.127112 0 1 tcp 1040 ------- 2 0.0 3.0 20 42 0 100
+ 0.127112 1 2 tcp 1040 ------- 2 0.0 3.0 20 42 0 100
r 0.127416 3 2 ack 40 ------- 2 3.0 0.0 10 43 0 999
+ 0.127416 2 1 ack 40 ------- 2 3.0 0.0 10 43 0 999
- 0.127416 2 1 ack 40 ------- 2 3.0 0.0 10 43 0 999
r 0.128872 1 2 tcp 540 ------- 2 0.0 3.0 0 22 7 500
+ 0.128872 2 3 tcp 540 ------- 2 0.0 3.0 0 22 7 500
- 0.128872 2 3 tcp 540 ------- 2 0.0 3.0 0 22 7 500
- 0.129192 1 2 tcp 1040 ------- 2 0.0 3.0 11 25 0 100
+ 0.13 0 1 tcp 540 ------- 2 0.0 3.0 0 44 13 500
- 0.13 0 1 tcp 540 ------- 2 0.0 3.0 0 44 13 500
r 0.130304 2 3 tcp 540 ------- 2 0.0 3.0 0 22 7 500
r 0.131432 0 1 tcp 540 ------- 2 0.0 3.0 0 44 13 500
+ 0.131432 1 2 tcp 540 ------- 2 0.0 3.0 0 44 13 500
r 0.131736 2 1 ack 40 ------- 2 3.0 0.0 10 43 0 999
+ 0.131736 1 0 ack 40 ------- 2 3.0 0.0 10 43 0 999
- 0.131736 1 0 ack 40 ------- 2 3.0 0.0 10 43 0 999
r 0.132768 1 0 ack 40 ------- 2 3.0 0.0 10 43 0 999
+ 0.132768 0 1 tcp 1040 ------- 2 0.0 3.0 21 45 0 100
- 0.132768 0 1 tcp 1040 ------- 2 0.0 3.0 21 45 0 100
+ 0.132768 0 1 tcp 1040 ------- 2 0.0 3.0 22 46 0 100
r 0.133192 1 2 tcp 540 ------- 2 0.0 3.0 0 24 8 500
+ 0.133192 2 3 tcp 540 ------- 2 0.0 3.0 0 24 8 500
- 0.133192 2 3 tcp 540 ------- 2 0.0 3.0 0 24 8 500
- 0.1336 0 1 tcp 1040 ------- 2 0.0 3.0 22 46 0 100
r 0.1346 0 1 tcp 1040 ------- 2 0.0 3.0 21 45 0 100
+ 0.1346 1 2 tcp 1040 ------- 2 0.0 3.0 21 45 0 100
r 0.134624 2 3 tcp 540 ------- 2 0.0 3.0 0 24 8 500
r 0.135432 0 1 tcp 1040 ------- 2 0.0 3.0 22 46 0 100
+ 0.135432 1 2 tcp 1040 ------- 2 0.0 3.0 22 46 0 100
- 0.137512 1 2 tcp 1040 ------- 2 0.0 3.0 12 26 0 100
+ 0.14 0 1 tcp 540 ------- 2 0.0 3.0 0 47 14 500
- 0.14 0 1 tcp 540 ------- 2 0.0 3.0 0 47 14 500
r 0.141432 0 1 tcp 540 ------- 2 0.0 3.0 0 47 14 500
+ 0.141432 1 2 tcp 540 ------- 2 0.0 3.0 0 47 14 500
r 0.141512 1 2 tcp 1040 ------- 2 0.0 3.0 11 25 0 100
+ 0.141512 2 3 tcp 1040 ------- 2 0.0 3.0 11 25 0 100
- 0.141512 2 3 tcp 1040 ------- 2 0.0 3.0 11 25 0 100
r 0.143344 2 3 tcp 1040 ------- 2 0.0 3.0 11 25 0 100
+ 0.143344 3 2 ack 40 ------- 2 3.0 0.0 11 48 0 999
- 0.143344 3 2 ack 40 ------- 2 3.0 0.0 11 48 0 999
r 0.144376 3 2 ack 40 ------- 2 3.0 0.0 11 48 0 999
+ 0.144376 2 1 ack 40 ------- 2 3.0 0.0 11 48 0 999
- 0.144376 2 1 ack 40 ------- 2 3.0 0.0 11 48 0 999
- 0.145832 1 2 tcp 540 ------- 2 0.0 3.0 0 28 9 500
r 0.148696 2 1 ack 40 ------- 2 3.0 0.0 11 48 0 999
+ 0.148696 1 0 ack 40 ------- 2 3.0 0.0 11 48 0 999
- 0.148696 1 0 ack 40 ------- 2 3.0 0.0 11 48 0 999
r 0.149728 1 0 ack 40 ------- 2 3.0 0.0 11 48 0 999
+ 0.149728 0 1 tcp 1040 ------- 2 0.0 3.0 23 49 0 100
- 0.149728 0 1 tcp 1040 ------- 2 0.0 3.0 23 49 0 100
+ 0.149728 0 1 tcp 1040 ------- 2 0.0 3.0 24 50 0 100
r 0.149832 1 2 tcp 1040 ------- 2 0.0 3.0 12 26 0 100
+ 0.149832 2 3 tcp 1040 ------- 2 0.0 3.0 12 26 0 100
- 0.149832 2 3 tcp 1040 ------- 2 0.0 3.0 12 26 0 100
+ 0.15 0 1 tcp 540 ------- 2 0.0 3.0 0 51 15 500
- 0.150152 1 2 tcp 1040 ------- 2 0.0 3.0 13 29 0 100
- 0.15056 0 1 tcp 1040 ------- 2 0.0 3.0 24 50 0 100
- 0.151392 0 1 tcp 540 ------- 2 0.0 3.0 0 51 15 500
r 0.15156 0 1 tcp 1040 ------- 2 0.0 3.0 23 49 0 100
+ 0.15156 1 2 tcp 1040 ------- 2 0.0 3.0 23 49 0 100
r 0.151664 2 3 tcp 1040 ------- 2 0.0 3.0 12 26 0 100
+ 0.151664 3 2 ack 40 ------- 2 3.0 0.0 12 52 0 999
- 0.151664 3 2 ack 40 ------- 2 3.0 0.0 12 52 0 999
r 0.152392 0 1 tcp 1040 ------- 2 0.0 3.0 24 50 0 100
+ 0.152392 1 2 tcp 1040 ------- 2 0.0 3.0 24 50 0 100
r 0.152696 3 2 ack 40 ------- 2 3.0 0.0 12 52 0 999
+ 0.152696 2 1 ack 40 ------- 2 3.0 0.0 12 52 0 999
- 0.152696 2 1 ack 40 ------- 2 3.0 0.0 12 52 0 999
r 0.152824 0 1 tcp 540 ------- 2 0.0 3.0 0 51 15 500
+ 0.152824 1 2 tcp 540 ------- 2 0.0 3.0 0 51 15 500
r 0.154152 1 2 tcp 540 ------- 2 0.0 3.0 0 28 9 500
+ 0.154152 2 3 tcp 540 ------- 2 0.0 3.0 0 28 9 500
- 0.154152 2 3 tcp 540 ------- 2 0.0 3.0 0 28 9 500
r 0.155584 2 3 tcp 540 ------- 2 0.0 3.0 0 28 9 500
r 0.157016 2 1 ack 40 ------- 2 3.0 0.0 12 52 0 999
+ 0.157016 1 0 ack 40 ------- 2 3.0 0.0 12 52 0 999
- 0.157016 1 0 ack 40 ------- 2 3.0 0.0 12 52 0 999
r 0.158048 1 0 ack 40 ------- 2 3.0 0.0 12 52 0 999
+ 0.158048 0 1 tcp 1040 ------- 2 0.0 3.0 25 53 0 100
- 0.158048 0 1 tcp 1040 ------- 2 0.0 3.0 25 53 0 100
+ 0.158048 0 1 tcp 1040 ------- 2 0.0 3.0 26 54 0 100
- 0.158472 1 2 tcp 1040 ------- 2 0.0 3.0 14 30 0 100
- 0.15888 0 1 tcp 1040 ------- 2 0.0 3.0 26 54 0 100
r 0.15988 0 1 tcp 1040 ------- 2 0.0 3.0 25 53 0 100
+ 0.15988 1 2 tcp 1040 ------- 2 0.0 3.0 25 53 0 100
+ 0.16 0 1 tcp 540 ------- 2 0.0 3.0 0 55 16 500
- 0.16 0 1 tcp 540 ------- 2 0.0 3.0 0 55 16 500
r 0.160712 0 1 tcp 1040 ------- 2 0.0 3.0 26 54 0 100
+ 0.160712 1 2 tcp 1040 ------- 2 0.0 3.0 26 54 0 100
r 0.161432 0 1 tcp 540 ------- 2 0.0 3.0 0 55 16 500
+ 0.161432 1 2 tcp 540 ------- 2 0.0 3.0 0 55 16 500
r 0.162472 1 2 tcp 1040 ------- 2 0.0 3.0 13 29 0 100
+ 0.162472 2 3 tcp 1040 ------- 2 0.0 3.0 13 29 0 100
- 0.162472 2 3 tcp 1040 ------- 2 0.0 3.0 13 29 0 100
r 0.164304 2 3 tcp 1040 ------- 2 0.0 3.0 13 29 0 100
+ 0.164304 3 2 ack 40 ------- 2 3.0 0.0 13 56 0 999
- 0.164304 3 2 ack 40 ------- 2 3.0 0.0 13 56 0 999
r 0.165336 3 2 ack 40 ------- 2 3.0 0.0 13 56 0 999
+ 0.165336 2 1 ack 40 ------- 2 3.0 0.0 13 56 0 999
- 0.165336 2 1 ack 40 ------- 2 3.0 0.0 13 56 0 999
- 0.166792 1 2 tcp 540 ------- 2 0.0 3.0 0 31 10 500
r 0.169656 2 1 ack 40 ------- 2 3.0 0.0 13 56 0 999
+ 0.169656 1 0 ack 40 ------- 2 3.0 0.0 13 56 0 999
- 0.169656 1 0 ack 40 ------- 2 3.0 0.0 13 56 0 999
+ 0.17 0 1 tcp 540 ------- 2 0.0 3.0 0 57 17 500
- 0.17 0 1 tcp 540 ------- 2 0.0 3.0 0 57 17 500
r 0.170688 1 0 ack 40 ------- 2 3.0 0.0 13 56 0 999
+ 0.170688 0 1 tcp 1040 ------- 2 0.0 3.0 27 58 0 100
- 0.170688 0 1 tcp 1040 ------- 2 0.0 3.0 27 58 0 100
+ 0.170688 0 1 tcp 1040 ------- 2 0.0 3.0 28 59 0 100
r 0.170792 1 2 tcp 1040 ------- 2 0.0 3.0 14 30 0 100
+ 0.170792 2 3 tcp 1040 ------- 2 0.0 3.0 14 30 0 100
- 0.170792 2 3 tcp 1040 ------- 2 0.0 3.0 14 30 0 100
- 0.171112 1 2 tcp 1040 ------- 2 0.0 3.0 15 33 0 100
r 0.171432 0 1 tcp 540 ------- 2 0.0 3.0 0 57 17 500
+ 0.171432 1 2 tcp 540 ------- 2 0.0 3.0 0 57 17 500
- 0.17152 0 1 tcp 1040 ------- 2 0.0 3.0 28 59 0 100
r 0.17252 0 1 tcp 1040 ------- 2 0.0 3.0 27 58 0 100
+ 0.17252 1 2 tcp 1040 ------- 2 0.0 3.0 27 58 0 100
r 0.172624 2 3 tcp 1040 ------- 2 0.0 3.0 14 30 0 100
+ 0.172624 3 2 ack 40 ------- 2 3.0 0.0 14 60 0 999
- 0.172624 3 2 ack 40 ------- 2 3.0 0.0 14 60 0 999
r 0.173352 0 1 tcp 1040 ------- 2 0.0 3.0 28 59 0 100
+ 0.173352 1 2 tcp 1040 ------- 2 0.0 3.0 28 59 0 100
r 0.173656 3 2 ack 40 ------- 2 3.0 0.0 14 60 0 999
+ 0.173656 2 1 ack 40 ------- 2 3.0 0.0 14 60 0 999
- 0.173656 2 1 ack 40 ------- 2 3.0 0.0 14 60 0 999
r 0.175112 1 2 tcp 540 ------- 2 0.0 3.0 0 31 10 500
+ 0.175112 2 3 tcp 540 ------- 2 0.0 3.0 0 31 10 500
- 0.175112 2 3 tcp 540 ------- 2 0.0 3.0 0 31 10 500
r 0.176544 2 3 tcp 540 ------- 2 0.0 3.0 0 31 10 500
r 0.177976 2 1 ack 40 ------- 2 3.0 0.0 14 60 0 999
+ 0.177976 1 0 ack 40 ------- 2 3.0 0.0 14 60 0 999
- 0.177976 1 0 ack 40 ------- 2 3.0 0.0 14 60 0 999
r 0.179008 1 0 ack 40 ------- 2 3.0 0.0 14 60 0 999
+ 0.179008 0 1 tcp 1040 ------- 2 0.0 3.0 29 61 0 100
- 0.179008 0 1 tcp 1040 ------- 2 0.0 3.0 29 61 0 100
+ 0.179008 0 1 tcp 1040 ------- 2 0.0 3.0 30 62 0 100
- 0.179432 1 2 tcp 1040 ------- 2 0.0 3.0 16 34 0 100
- 0.17984 0 1 tcp 1040 ------- 2 0.0 3.0 30 62 0 100
+ 0.18 0 1 tcp 540 ------- 2 0.0 3.0 0 63 18 500
- 0.180672 0 1 tcp 540 ------- 2 0.0 3.0 0 63 18 500
r 0.18084 0 1 tcp 1040 ------- 2 0.0 3.0 29 61 0 100
+ 0.18084 1 2 tcp 1040 ------- 2 0.0 3.0 29 61 0 100
r 0.181672 0 1 tcp 1040 ------- 2 0.0 3.0 30 62 0 100
+ 0.181672 1 2 tcp 1040 ------- 2 0.0 3.0 30 62 0 100
r 0.182104 0 1 tcp 540 ------- 2 0.0 3.0 0 63 18 500
+ 0.182104 1 2 tcp 540 ------- 2 0.0 3.0 0 63 18 500
r 0.183432 1 2 tcp 1040 ------- 2 0.0 3.0 15 33 0 100
+ 0.183432 2 3 tcp 1040 ------- 2 0.0 3.0 15 33 0 100
- 0.183432 2 3 tcp 1040 ------- 2 0.0 3.0 15 33 0 100
r 0.185264 2 3 tcp 1040 ------- 2 0.0 3.0 15 33 0 100
+ 0.185264 3 2 ack 40 ------- 2 3.0 0.0 15 64 0 999
- 0.185264 3 2 ack 40 ------- 2 3.0 0.0 15 64 0 999
r 0.186296 3 2 ack 40 ------- 2 3.0 0.0 15 64 0 999
+ 0.186296 2 1 ack 40 ------- 2 3.0 0.0 15 64 0 999
- 0.186296 2 1 ack 40 ------- 2 3.0 0.0 15 64 0 999
- 0.187752 1 2 tcp 540 ------- 2 0.0 3.0 0 36 11 500
+ 0.19 0 1 tcp 540 ------- 2 0.0 3.0 0 65 19 500
- 0.19 0 1 tcp 540 ------- 2 0.0 3.0 0 65 19 500
r 0.190616 2 1 ack 40 ------- 2 3.0 0.0 15 64 0 999
+ 0.190616 1 0 ack 40 ------- 2 3.0 0.0 15 64 0 999
- 0.190616 1 0 ack 40 ------- 2 3.0 0.0 15 64 0 999
r 0.191432 0 1 tcp 540 ------- 2 0.0 3.0 0 65 19 500
+ 0.191432 1 2 tcp 540 ------- 2 0.0 3.0 0 65 19 500
r 0.191648 1 0 ack 40 ------- 2 3.0 0.0 15 64 0 999
+ 0.191648 0 1 tcp 1040 ------- 2 0.0 3.0 31 66 0 100
- 0.191648 0 1 tcp 1040 ------- 2 0.0 3.0 31 66 0 100
+ 0.191648 0 1 tcp 1040 ------- 2 0.0 3.0 32 67 0 100
r 0.191752 1 2 tcp 1040 ------- 2 0.0 3.0 16 34 0 100
+ 0.191752 2 3 tcp 1040 ------- 2 0.0 3.0 16 34 0 100
- 0.191752 2 3 tcp 1040 ------- 2 0.0 3.0 16 34 0 100
- 0.192072 1 2 tcp 1040 ------- 2 0.0 3.0 17 37 0 100
- 0.19248 0 1 tcp 1040 ------- 2 0.0 3.0 32 67 0 100
r 0.19348 0 1 tcp 1040 ------- 2 0.0 3.0 31 66 0 100
+ 0.19348 1 2 tcp 1040 ------- 2 0.0 3.0 31 66 0 100
r 0.193584 2 3 tcp 1040 ------- 2 0.0 3.0 16 34 0 100
+ 0.193584 3 2 ack 40 ------- 2 3.0 0.0 16 68 0 999
- 0.193584 3 2 ack 40 ------- 2 3.0 0.0 16 68 0 999
r 0.194312 0 1 tcp 1040 ------- 2 0.0 3.0 32 67 0 100
+ 0.194312 1 2 tcp 1040 ------- 2 0.0 3.0 32 67 0 100
r 0.194616 3 2 ack 40 ------- 2 3.0 0.0 16 68 0 999
+ 0.194616 2 1 ack 40 ------- 2 3.0 0.0 16 68 0 999
- 0.194616 2 1 ack 40 ------- 2 3.0 0.0 16 68 0 999
r 0.196072 1 2 tcp 540 ------- 2 0.0 3.0 0 36 11 500
+ 0.196072 2 3 tcp 540 ------- 2 0.0 3.0 0 36 11 500
- 0.196072 2 3 tcp 540 ------- 2 0.0 3.0 0 36 11 500
r 0.197504 2 3 tcp 540 ------- 2 0.0 3.0 0 36 11 500
r 0.198936 2 1 ack 40 ------- 2 3.0 0.0 16 68 0 999
+ 0.198936 1 0 ack 40 ------- 2 3.0 0.0 16 68 0 999
- 0.198936 1 0 ack 40 ------- 2 3.0 0.0 16 68 0 999
r 0.199968 1 0 ack 40 ------- 2 3.0 0.0 16 68 0 999
+ 0.199968 0 1 tcp 1040 ------- 2 0.0 3.0 33 69 0 100
- 0.199968 0 1 tcp 1040 ------- 2 0.0 3.0 33 69 0 100
+ 0.199968 0 1 tcp 1040 ------- 2 0.0 3.0 34 70 0 100
+ 0.2 0 1 tcp 540 ------- 2 0.0 3.0 0 71 20 500
- 0.200392 1 2 tcp 1040 ------- 2 0.0 3.0 18 38 0 100
- 0.2008 0 1 tcp 1040 ------- 2 0.0 3.0 34 70 0 100
- 0.201632 0 1 tcp 540 ------- 2 0.0 3.0 0 71 20 500
r 0.2018 0 1 tcp 1040 ------- 2 0.0 3.0 33 69 0 100
+ 0.2018 1 2 tcp 1040 ------- 2 0.0 3.0 33 69 0 100
r 0.202632 0 1 tcp 1040 ------- 2 0.0 3.0 34 70 0 100
+ 0.202632 1 2 tcp 1040 ------- 2 0.0 3.0 34 70 0 100
r 0.203064 0 1 tcp 540 ------- 2 0.0 3.0 0 71 20 500
+ 0.203064 1 2 tcp 540 ------- 2 0.0 3.0 0 71 20 500
r 0.204392 1 2 tcp 1040 ------- 2 0.0 3.0 17 37 0 100
+ 0.204392 2 3 tcp 1040 ------- 2 0.0 3.0 17 37 0 100
- 0.204392 2 3 tcp 1040 ------- 2 0.0 3.0 17 37 0 100
r 0.206224 2 3 tcp 1040 ------- 2 0.0 3.0 17 37 0 100
+ 0.206224 3 2 ack 40 ------- 2 3.0 0.0 17 72 0 999
- 0.206224 3 2 ack 40 ------- 2 3.0 0.0 17 72 0 999
r 0.207256 3 2 ack 40 ------- 2 3.0 0.0 17 72 0 999
+ 0.207256 2 1 ack 40 ------- 2 3.0 0.0 17 72 0 999
- 0.207256 2 1 ack 40 ------- 2 3.0 0.0 17 72 0 999
- 0.208712 1 2 tcp 540 ------- 2 0.0 3.0 0 40 12 500
+ 0.21 0 1 tcp 540 ------- 2 0.0 3.0 0 73 21 500
- 0.21 0 1 tcp 540 ------- 2 0.0 3.0 0 73 21 500
r 0.211432 0 1 tcp 540 ------- 2 0.0 3.0 0 73 21 500
+ 0.211432 1 2 tcp 540 ------- 2 0.0 3.0 0 73 21 500
r 0.211576 2 1 ack 40 ------- 2 3.0 0.0 17 72 0 999
+ 0.211576 1 0 ack 40 ------- 2 3.0 0.0 17 72 0 999
- 0.211576 1 0 ack 40 ------- 2 3.0 0.0 17 72 0 999
r 0.212608 1 0 ack 40 ------- 2 3.0 0.0 17 72 0 999
+ 0.212608 0 1 tcp 1040 ------- 2 0.0 3.0 35 74 0 100
- 0.212608 0 1 tcp 1040 ------- 2 0.0 3.0 35 74 0 100
+ 0.212608 0 1 tcp 1040 ------- 2 0.0 3.0 36 75 0 100
r 0.212712 1 2 tcp 1040 ------- 2 0.0 3.0 18 38 0 100
+ 0.212712 2 3 tcp 1040 ------- 2 0.0 3.0 18 38 0 100
- 0.212712 2 3 tcp 1040 ------- 2 0.0 3.0 18 38 0 100
- 0.213032 1 2 tcp 1040 ------- 2 0.0 3.0 19 41 0 100
- 0.21344 0 1 tcp 1040 ------- 2 0.0 3.0 36 75 0 100
r 0.21444 0 1 tcp 1040 ------- 2 0.0 3.0 35 74 0 100
+ 0.21444 1 2 tcp 1040 ------- 2 0.0 3.0 35 74 0 100
r 0.214544 2 3 tcp 1040 ------- 2 0.0 3.0 18 38 0 100
+ 0.214544 3 2 ack 40 ------- 2 3.0 0.0 18 76 0 999
- 0.214544 3 2 ack 40 ------- 2 3.0 0.0 18 76 0 999
r 0.215272 0 1 tcp 1040 ------- 2 0.0 3.0 36 75 0 100
+ 0.215272 1 2 tcp 1040 ------- 2 0.0 3.0 36 75 0 100
r 0.215576 3 2 ack 40 ------- 2 3.0 0.0 18 76 0 999
+ 0.215576 2 1 ack 40 ------- 2 3.0 0.0 18 76 0 999
- 0.215576 2 1 ack 40 ------- 2 3.0 0.0 18 76 0 999
r 0.217032 1 2 tcp 540 ------- 2 0.0 3.0 0 40 12 500
+ 0.217032 2 3 tcp 540 ------- 2 0.0 3.0 0 40 12 500
- 0.217032 2 3 tcp 540 ------- 2 0.0 3.0 0 40 12 500
r 0.218464 2 3 tcp 540 ------- 2 0.0 3.0 0 40 12 500
r 0.219896 2 1 ack 40 ------- 2 3.0 0.0 18 76 0 999
+ 0.219896 1 0 ack 40 ------- 2 3.0 0.0 18 76 0 999
- 0.219896 1 0 ack 40 ------- 2 3.0 0.0 18 76 0 999
+ 0.22 0 1 tcp 540 ------- 2 0.0 3.0 0 77 22 500
- 0.22 0 1 tcp 540 ------- 2 0.0 3.0 0 77 22 500
r 0.220928 1 0 ack 40 ------- 2 3.0 0.0 18 76 0 999
+ 0.220928 0 1 tcp 1040 ------- 2 0.0 3.0 37 78 0 100
- 0.220928 0 1 tcp 1040 ------- 2 0.0 3.0 37 78 0 100
+ 0.220928 0 1 tcp 1040 ------- 2 0.0 3.0 38 79 0 100
- 0.221352 1 2 tcp 1040 ------- 2 0.0 3.0 20 42 0 100
r 0.221432 0 1 tcp 540 ------- 2 0.0 3.0 0 77 22 500
+ 0.221432 1 2 tcp 540 ------- 2 0.0 3.0 0 77 22 500
- 0.22176 0 1 tcp 1040 ------- 2 0.0 3.0 38 79 0 100
r 0.22276 0 1 tcp 1040 ------- 2 0.0 3.0 37 78 0 100
+ 0.22276 1 2 tcp 1040 ------- 2 0.0 3.0 37 78 0 100
r 0.223592 0 1 tcp 1040 ------- 2 0.0 3.0 38 79 0 100
+ 0.223592 1 2 tcp 1040 ------- 2 0.0 3.0 38 79 0 100
r 0.225352 1 2 tcp 1040 ------- 2 0.0 3.0 19 41 0 100
+ 0.225352 2 3 tcp 1040 ------- 2 0.0 3.0 19 41 0 100
- 0.225352 2 3 tcp 1040 ------- 2 0.0 3.0 19 41 0 100
r 0.227184 2 3 tcp 1040 ------- 2 0.0 3.0 19 41 0 100