+ 0 0 1 tcp 40 ------- 2 0.0 3.0 0 0 0 999
- 0 0 1 tcp 40 ------- 2 0.0 3.0 0 0 0 999
r 0.001032 0 1 tcp 40 ------- 2 0.0 3.0 0 0 0 999
+ 0.001032 1 2 tcp 40 ------- 2 0.0 3.0 0 0 0 999
- 0.001032 1 2 tcp 40 ------- 2 0.0 3.0 0 0 0 999
+ 0.01 0 1 tcp 1040 ------- 2 0.0 3.0 0 1 1 500
- 0.01 0 1 tcp 1040 ------- 2 0.0 3.0 0 1 1 500
r 0.011832 0 1 tcp 1040 ------- 2 0.0 3.0 0 1 1 500
+ 0.011832 1 2 tcp 1040 ------- 2 0.0 3.0 0 1 1 500
- 0.011832 1 2 tcp 1040 ------- 2 0.0 3.0 0 1 1 500
+ 0.02 0 1 tcp 1040 ------- 2 0.0 3.0 0 2 2 500
- 0.02 0 1 tcp 1040 ------- 2 0.0 3.0 0 2 2 500
r 0.021832 0 1 tcp 1040 ------- 2 0.0 3.0 0 2 2 500
+ 0.021832 1 2 tcp 1040 ------- 2 0.0 3.0 0 2 2 500
- 0.021832 1 2 tcp 1040 ------- 2 0.0 3.0 0 2 2 500
+ 0.03 0 1 tcp 1040 ------- 2 0.0 3.0 0 3 3 500
- 0.03 0 1 tcp 1040 ------- 2 0.0 3.0 0 3 3 500
r 0.031832 0 1 tcp 1040 ------- 2 0.0 3.0 0 3 3 500
+ 0.031832 1 2 tcp 1040 ------- 2 0.0 3.0 0 3 3 500
- 0.031832 1 2 tcp 1040 ------- 2 0.0 3.0 0 3 3 500
+ 0.04 0 1 tcp 1040 ------- 2 0.0 3.0 0 4 4 500
- 0.04 0 1 tcp 1040 ------- 2 0.0 3.0 0 4 4 500
r 0.041832 0 1 tcp 1040 ------- 2 0.0 3.0 0 4 4 500
+ 0.041832 1 2 tcp 1040 ------- 2 0.0 3.0 0 4 4 500
- 0.041832 1 2 tcp 1040 ------- 2 0.0 3.0 0 4 4 500
+ 0.05 0 1 tcp 1040 ------- 2 0.0 3.0 0 5 5 500
- 0.05 0 1 tcp 1040 ------- 2 0.0 3.0 0 5 5 500
r 0.051352 1 2 tcp 40 ------- 2 0.0 3.0 0 0 0 999
+ 0.051352 2 3 tcp 40 ------- 2 0.0 3.0 0 0 0 999
- 0.051352 2 3 tcp 40 ------- 2 0.0 3.0 0 0 0 999
r 0.051832 0 1 tcp 1040 ------- 2 0.0 3.0 0 5 5 500
+ 0.051832 1 2 tcp 1040 ------- 2 0.0 3.0 0 5 5 500
- 0.051832 1 2 tcp 1040 ------- 2 0.0 3.0 0 5 5 500
r 0.052384 2 3 tcp 40 ------- 2 0.0 3.0 0 0 0 999
+ 0.052384 3 2 ack 40 ------- 2 3.0 0.0 0 6 0 999
- 0.052384 3 2 ack 40 ------- 2 3.0 0.0 0 6 0 999
r 0.053416 3 2 ack 40 ------- 2 3.0 0.0 0 6 0 999
+ 0.053416 2 1 ack 40 ------- 2 3.0 0.0 0 6 0 999
- 0.053416 2 1 ack 40 ------- 2 3.0 0.0 0 6 0 999
+ 0.06 0 1 tcp 1040 ------- 2 0.0 3.0 0 7 6 500
- 0.06 0 1 tcp 1040 ------- 2 0.0 3.0 0 7 6 500
r 0.061832 0 1 tcp 1040 ------- 2 0.0 3.0 0 7 6 500
+ 0.061832 1 2 tcp 1040 ------- 2 0.0 3.0 0 7 6 500
- 0.061832 1 2 tcp 1040 ------- 2 0.0 3.0 0 7 6 500
+ 0.07 0 1 tcp 1040 ------- 2 0.0 3.0 0 8 7 500
- 0.07 0 1 tcp 1040 ------- 2 0.0 3.0 0 8 7 500
r 0.070152 1 2 tcp 1040 ------- 2 0.0 3.0 0 1 1 500
+ 0.070152 2 3 tcp 1040 ------- 2 0.0 3.0 0 1 1 500
- 0.070152 2 3 tcp 1040 ------- 2 0.0 3.0 0 1 1 500
r 0.071832 0 1 tcp 1040 ------- 2 0.0 3.0 0 8 7 500
+ 0.071832 1 2 tcp 1040 ------- 2 0.0 3.0 0 8 7 500
- 0.071832 1 2 tcp 1040 ------- 2 0.0 3.0 0 8 7 500
r 0.071984 2 3 tcp 1040 ------- 2 0.0 3.0 0 1 1 500
+ 0.08 0 1 tcp 1040 ------- 2 0.0 3.0 0 9 8 500
- 0.08 0 1 tcp 1040 ------- 2 0.0 3.0 0 9 8 500
r 0.080152 1 2 tcp 1040 ------- 2 0.0 3.0 0 2 2 500
+ 0.080152 2 3 tcp 1040 ------- 2 0.0 3.0 0 2 2 500
- 0.080152 2 3 tcp 1040 ------- 2 0.0 3.0 0 2 2 500
r 0.081832 0 1 tcp 1040 ------- 2 0.0 3.0 0 9 8 500
+ 0.081832 1 2 tcp 1040 ------- 2 0.0 3.0 0 9 8 500
- 0.081832 1 2 tcp 1040 ------- 2 0.0 3.0 0 9 8 500
r 0.081984 2 3 tcp 1040 ------- 2 0.0 3.0 0 2 2 500
+ 0.09 0 1 tcp 1040 ------- 2 0.0 3.0 0 10 9 500
- 0.09 0 1 tcp 1040 ------- 2 0.0 3.0 0 10 9 500
r 0.090152 1 2 tcp 1040 ------- 2 0.0 3.0 0 3 3 500
+ 0.090152 2 3 tcp 1040 ------- 2 0.0 3.0 0 3 3 500
- 0.090152 2 3 tcp 1040 ------- 2 0.0 3.0 0 3 3 500
r 0.091832 0 1 tcp 1040 ------- 2 0.0 3.0 0 10 9 500
+ 0.091832 1 2 tcp 1040 ------- 2 0.0 3.0 0 10 9 500
- 0.091832 1 2 tcp 1040 ------- 2 0.0 3.0 0 10 9 500
r 0.091984 2 3 tcp 1040 ------- 2 0.0 3.0 0 3 3 500
+ 0.1 0 1 tcp 1040 ------- 2 0.0 3.0 0 11 10 500
- 0.1 0 1 tcp 1040 ------- 2 0.0 3.0 0 11 10 500
r 0.100152 1 2 tcp 1040 ------- 2 0.0 3.0 0 4 4 500
+ 0.100152 2 3 tcp 1040 ------- 2 0.0 3.0 0 4 4 500
- 0.100152 2 3 tcp 1040 ------- 2 0.0 3.0 0 4 4 500
r 0.101832 0 1 tcp 1040 ------- 2 0.0 3.0 0 11 10 500
+ 0.101832 1 2 tcp 1040 ------- 2 0.0 3.0 0 11 10 500
- 0.101832 1 2 tcp 1040 ------- 2 0.0 3.0 0 11 10 500
r 0.101984 2 3 tcp 1040 ------- 2 0.0 3.0 0 4 4 500
r 0.103736 2 1 ack 40 ------- 2 3.0 0.0 0 6 0 999
+ 0.103736 1 0 ack 40 ------- 2 3.0 0.0 0 6 0 999
- 0.103736 1 0 ack 40 ------- 2 3.0 0.0 0 6 0 999
r 0.104768 1 0 ack 40 ------- 2 3.0 0.0 0 6 0 999
+ 0.104768 0 1 tcp 1040 ------- 2 0.0 3.0 1 12 0 100
- 0.104768 0 1 tcp 1040 ------- 2 0.0 3.0 1 12 0 100
+ 0.104768 0 1 tcp 1040 ------- 2 0.0 3.0 2 13 0 100
- 0.1056 0 1 tcp 1040 ------- 2 0.0 3.0 2 13 0 100
r 0.1066 0 1 tcp 1040 ------- 2 0.0 3.0 1 12 0 100
+ 0.1066 1 2 tcp 1040 ------- 2 0.0 3.0 1 12 0 100
r 0.107432 0 1 tcp 1040 ------- 2 0.0 3.0 2 13 0 100
+ 0.107432 1 2 tcp 1040 ------- 2 0.0 3.0 2 13 0 100
+ 0.11 0 1 tcp 1040 ------- 2 0.0 3.0 0 14 11 500
- 0.11 0 1 tcp 1040 ------- 2 0.0 3.0 0 14 11 500
- 0.110152 1 2 tcp 1040 ------- 2 0.0 3.0 1 12 0 100
r 0.110152 1 2 tcp 1040 ------- 2 0.0 3.0 0 5 5 500
+ 0.110152 2 3 tcp 1040 ------- 2 0.0 3.0 0 5 5 500
- 0.110152 2 3 tcp 1040 ------- 2 0.0 3.0 0 5 5 500
r 0.111832 0 1 tcp 1040 ------- 2 0.0 3.0 0 14 11 500
+ 0.111832 1 2 tcp 1040 ------- 2 0.0 3.0 0 14 11 500
r 0.111984 2 3 tcp 1040 ------- 2 0.0 3.0 0 5 5 500
- 0.118472 1 2 tcp 1040 ------- 2 0.0 3.0 2 13 0 100
+ 0.12 0 1 tcp 1040 ------- 2 0.0 3.0 0 15 12 500
- 0.12 0 1 tcp 1040 ------- 2 0.0 3.0 0 15 12 500
r 0.120152 1 2 tcp 1040 ------- 2 0.0 3.0 0 7 6 500
+ 0.120152 2 3 tcp 1040 ------- 2 0.0 3.0 0 7 6 500
- 0.120152 2 3 tcp 1040 ------- 2 0.0 3.0 0 7 6 500
r 0.121832 0 1 tcp 1040 ------- 2 0.0 3.0 0 15 12 500
+ 0.121832 1 2 tcp 1040 ------- 2 0.0 3.0 0 15 12 500
r 0.121984 2 3 tcp 1040 ------- 2 0.0 3.0 0 7 6 500
- 0.126792 1 2 tcp 1040 ------- 2 0.0 3.0 0 14 11 500
+ 0.13 0 1 tcp 1040 ------- 2 0.0 3.0 0 16 13 500
- 0.13 0 1 tcp 1040 ------- 2 0.0 3.0 0 16 13 500
r 0.130152 1 2 tcp 1040 ------- 2 0.0 3.0 0 8 7 500
+ 0.130152 2 3 tcp 1040 ------- 2 0.0 3.0 0 8 7 500
- 0.130152 2 3 tcp 1040 ------- 2 0.0 3.0 0 8 7 500
r 0.131832 0 1 tcp 1040 ------- 2 0.0 3.0 0 16 13 500
+ 0.131832 1 2 tcp 1040 ------- 2 0.0 3.0 0 16 13 500
r 0.131984 2 3 tcp 1040 ------- 2 0.0 3.0 0 8 7 500
- 0.135112 1 2 tcp 1040 ------- 2 0.0 3.0 0 15 12 500
+ 0.14 0 1 tcp 1040 ------- 2 0.0 3.0 0 17 14 500
- 0.14 0 1 tcp 1040 ------- 2 0.0 3.0 0 17 14 500
r 0.140152 1 2 tcp 1040 ------- 2 0.0 3.0 0 9 8 500
+ 0.140152 2 3 tcp 1040 ------- 2 0.0 3.0 0 9 8 500
- 0.140152 2 3 tcp 1040 ------- 2 0.0 3.0 0 9 8 500
r 0.141832 0 1 tcp 1040 ------- 2 0.0 3.0 0 17 14 500
+ 0.141832 1 2 tcp 1040 ------- 2 0.0 3.0 0 17 14 500
r 0.141984 2 3 tcp 1040 ------- 2 0.0 3.0 0 9 8 500
- 0.143432 1 2 tcp 1040 ------- 2 0.0 3.0 0 16 13 500
+ 0.15 0 1 tcp 1040 ------- 2 0.0 3.0 0 18 15 500
- 0.15 0 1 tcp 1040 ------- 2 0.0 3.0 0 18 15 500
r 0.150152 1 2 tcp 1040 ------- 2 0.0 3.0 0 10 9 500
+ 0.150152 2 3 tcp 1040 ------- 2 0.0 3.0 0 10 9 500
- 0.150152 2 3 tcp 1040 ------- 2 0.0 3.0 0 10 9 500
- 0.151752 1 2 tcp 1040 ------- 2 0.0 3.0 0 17 14 500
r 0.151832 0 1 tcp 1040 ------- 2 0.0 3.0 0 18 15 500
+ 0.151832 1 2 tcp 1040 ------- 2 0.0 3.0 0 18 15 500
r 0.151984 2 3 tcp 1040 ------- 2 0.0 3.0 0 10 9 500
+ 0.16 0 1 tcp 1040 ------- 2 0.0 3.0 0 19 16 500
- 0.16 0 1 tcp 1040 ------- 2 0.0 3.0 0 19 16 500
- 0.160072 1 2 tcp 1040 ------- 2 0.0 3.0 0 18 15 500
r 0.160152 1 2 tcp 1040 ------- 2 0.0 3.0 0 11 10 500
+ 0.160152 2 3 tcp 1040 ------- 2 0.0 3.0 0 11 10 500
- 0.160152 2 3 tcp 1040 ------- 2 0.0 3.0 0 11 10 500
r 0.161832 0 1 tcp 1040 ------- 2 0.0 3.0 0 19 16 500
+ 0.161832 1 2 tcp 1040 ------- 2 0.0 3.0 0 19 16 500
r 0.161984 2 3 tcp 1040 ------- 2 0.0 3.0 0 11 10 500
- 0.168392 1 2 tcp 1040 ------- 2 0.0 3.0 0 19 16 500
r 0.168472 1 2 tcp 1040 ------- 2 0.0 3.0 1 12 0 100
+ 0.168472 2 3 tcp 1040 ------- 2 0.0 3.0 1 12 0 100
- 0.168472 2 3 tcp 1040 ------- 2 0.0 3.0 1 12 0 100
+ 0.17 0 1 tcp 1040 ------- 2 0.0 3.0 0 20 17 500
- 0.17 0 1 tcp 1040 ------- 2 0.0 3.0 0 20 17 500
r 0.170304 2 3 tcp 1040 ------- 2 0.0 3.0 1 12 0 100
+ 0.170304 3 2 ack 40 ------- 2 3.0 0.0 1 21 0 999
- 0.170304 3 2 ack 40 ------- 2 3.0 0.0 1 21 0 999
r 0.171336 3 2 ack 40 ------- 2 3.0 0.0 1 21 0 999
+ 0.171336 2 1 ack 40 ------- 2 3.0 0.0 1 21 0 999
- 0.171336 2 1 ack 40 ------- 2 3.0 0.0 1 21 0 999
r 0.171832 0 1 tcp 1040 ------- 2 0.0 3.0 0 20 17 500
+ 0.171832 1 2 tcp 1040 ------- 2 0.0 3.0 0 20 17 500
- 0.176712 1 2 tcp 1040 ------- 2 0.0 3.0 0 20 17 500
r 0.176792 1 2 tcp 1040 ------- 2 0.0 3.0 2 13 0 100
+ 0.176792 2 3 tcp 1040 ------- 2 0.0 3.0 2 13 0 100
- 0.176792 2 3 tcp 1040 ------- 2 0.0 3.0 2 13 0 100
r 0.178624 2 3 tcp 1040 ------- 2 0.0 3.0 2 13 0 100
+ 0.178624 3 2 ack 40 ------- 2 3.0 0.0 2 22 0 999
- 0.178624 3 2 ack 40 ------- 2 3.0 0.0 2 22 0 999
r 0.179656 3 2 ack 40 ------- 2 3.0 0.0 2 22 0 999
+ 0.179656 2 1 ack 40 ------- 2 3.0 0.0 2 22 0 999
- 0.179656 2 1 ack 40 ------- 2 3.0 0.0 2 22 0 999
+ 0.18 0 1 tcp 1040 ------- 2 0.0 3.0 0 23 18 500
- 0.18 0 1 tcp 1040 ------- 2 0.0 3.0 0 23 18 500
r 0.181832 0 1 tcp 1040 ------- 2 0.0 3.0 0 23 18 500
+ 0.181832 1 2 tcp 1040 ------- 2 0.0 3.0 0 23 18 500
- 0.185032 1 2 tcp 1040 ------- 2 0.0 3.0 0 23 18 500
r 0.185112 1 2 tcp 1040 ------- 2 0.0 3.0 0 14 11 500
+ 0.185112 2 3 tcp 1040 ------- 2 0.0 3.0 0 14 11 500
- 0.185112 2 3 tcp 1040 ------- 2 0.0 3.0 0 14 11 500
r 0.186944 2 3 tcp 1040 ------- 2 0.0 3.0 0 14 11 500
+ 0.19 0 1 tcp 1040 ------- 2 0.0 3.0 0 24 19 500
- 0.19 0 1 tcp 1040 ------- 2 0.0 3.0 0 24 19 500
r 0.191832 0 1 tcp 1040 ------- 2 0.0 3.0 0 24 19 500
+ 0.191832 1 2 tcp 1040 ------- 2 0.0 3.0 0 24 19 500
- 0.193352 1 2 tcp 1040 ------- 2 0.0 3.0 0 24 19 500
r 0.193432 1 2 tcp 1040 ------- 2 0.0 3.0 0 15 12 500
+ 0.193432 2 3 tcp 1040 ------- 2 0.0 3.0 0 15 12 500
- 0.193432 2 3 tcp 1040 ------- 2 0.0 3.0 0 15 12 500
r 0.195264 2 3 tcp 1040 ------- 2 0.0 3.0 0 15 12 500
+ 0.2 0 1 tcp 1040 ------- 2 0.0 3.0 0 25 20 500
- 0.2 0 1 tcp 1040 ------- 2 0.0 3.0 0 25 20 500
r 0.201752 1 2 tcp 1040 ------- 2 0.0 3.0 0 16 13 500
+ 0.201752 2 3 tcp 1040 ------- 2 0.0 3.0 0 16 13 500
- 0.201752 2 3 tcp 1040 ------- 2 0.0 3.0 0 16 13 500
r 0.201832 0 1 tcp 1040 ------- 2 0.0 3.0 0 25 20 500
+ 0.201832 1 2 tcp 1040 ------- 2 0.0 3.0 0 25 20 500
- 0.201832 1 2 tcp 1040 ------- 2 0.0 3.0 0 25 20 500
r 0.203584 2 3 tcp 1040 ------- 2 0.0 3.0 0 16 13 500
+ 0.21 0 1 tcp 1040 ------- 2 0.0 3.0 0 26 21 500
- 0.21 0 1 tcp 1040 ------- 2 0.0 3.0 0 26 21 500
r 0.210072 1 2 tcp 1040 ------- 2 0.0 3.0 0 17 14 500
+ 0.210072 2 3 tcp 1040 ------- 2 0.0 3.0 0 17 14 500
- 0.210072 2 3 tcp 1040 ------- 2 0.0 3.0 0 17 14 500
r 0.211832 0 1 tcp 1040 ------- 2 0.0 3.0 0 26 21 500
+ 0.211832 1 2 tcp 1040 ------- 2 0.0 3.0 0 26 21 500
- 0.211832 1 2 tcp 1040 ------- 2 0.0 3.0 0 26 21 500
r 0.211904 2 3 tcp 1040 ------- 2 0.0 3.0 0 17 14 500
r 0.218392 1 2 tcp 1040 ------- 2 0.0 3.0 0 18 15 500
+ 0.218392 2 3 tcp 1040 ------- 2 0.0 3.0 0 18 15 500
- 0.218392 2 3 tcp 1040 ------- 2 0.0 3.0 0 18 15 500
+ 0.22 0 1 tcp 1040 ------- 2 0.0 3.0 0 27 22 500
- 0.22 0 1 tcp 1040 ------- 2 0.0 3.0 0 27 22 500
r 0.220224 2 3 tcp 1040 ------- 2 0.0 3.0 0 18 15 500
r 0.221656 2 1 ack 40 ------- 2 3.0 0.0 1 21 0 999
+ 0.221656 1 0 ack 40 ------- 2 3.0 0.0 1 21 0 999
- 0.221656 1 0 ack 40 ------- 2 3.0 0.0 1 21 0 999
r 0.221832 0 1 tcp 1040 ------- 2 0.0 3.0 0 27 22 500
+ 0.221832 1 2 tcp 1040 ------- 2 0.0 3.0 0 27 22 500
- 0.221832 1 2 tcp 1040 ------- 2 0.0 3.0 0 27 22 500
r 0.222688 1 0 ack 40 ------- 2 3.0 0.0 1 21 0 999
+ 0.222688 0 1 tcp 1040 ------- 2 0.0 3.0 3 28 0 100
- 0.222688 0 1 tcp 1040 ------- 2 0.0 3.0 3 28 0 100
+ 0.222688 0 1 tcp 1040 ------- 2 0.0 3.0 4 29 0 100
- 0.22352 0 1 tcp 1040 ------- 2 0.0 3.0 4 29 0 100
r 0.22452 0 1 tcp 1040 ------- 2 0.0 3.0 3 28 0 100
+ 0.22452 1 2 tcp 1040 ------- 2 0.0 3.0 3 28 0 100
r 0.225352 0 1 tcp 1040 ------- 2 0.0 3.0 4 29 0 100
+ 0.225352 1 2 tcp 1040 ------- 2 0.0 3.0 4 29 0 100
r 0.226712 1 2 tcp 1040 ------- 2 0.0 3.0 0 19 16 500
+ 0.226712 2 3 tcp 1040 ------- 2 0.0 3.0 0 19 16 500
- 0.226712 2 3 tcp 1040 ------- 2 0.0 3.0 0 19 16 500
r 0.228544 2 3 tcp 1040 ------- 2 0.0 3.0 0 19 16 500
r 0.229976 2 1 ack 40 ------- 2 3.0 0.0 2 22 0 999
+ 0.229976 1 0 ack 40 ------- 2 3.0 0.0 2 22 0 999
- 0.229976 1 0 ack 40 ------- 2 3.0 0.0 2 22 0 999
+ 0.23 0 1 tcp 1040 ------- 2 0.0 3.0 0 30 23 500
- 0.23 0 1 tcp 1040 ------- 2 0.0 3.0 0 30 23 500
- 0.230152 1 2 tcp 1040 ------- 2 0.0 3.0 3 28 0 100
r 0.231008 1 0 ack 40 ------- 2 3.0 0.0 2 22 0 999
+ 0.231008 0 1 tcp 1040 ------- 2 0.0 3.0 5 31 0 100
- 0.231008 0 1 tcp 1040 ------- 2 0.0 3.0 5 31 0 100
+ 0.231008 0 1 tcp 1040 ------- 2 0.0 3.0 6 32 0 100
r 0.231832 0 1 tcp 1040 ------- 2 0.0 3.0 0 30 23 500
+ 0.231832 1 2 tcp 1040 ------- 2 0.0 3.0 0 30 23 500
- 0.23184 0 1 tcp 1040 ------- 2 0.0 3.0 6 32 0 100
r 0.23284 0 1 tcp 1040 ------- 2 0.0 3.0 5 31 0 100
+ 0.23284 1 2 tcp 1040 ------- 2 0.0 3.0 5 31 0 100
r 0.233672 0 1 tcp 1040 ------- 2 0.0 3.0 6 32 0 100
+ 0.233672 1 2 tcp 1040 ------- 2 0.0 3.0 6 32 0 100
r 0.235032 1 2 tcp 1040 ------- 2 0.0 3.0 0 20 17 500
+ 0.235032 2 3 tcp 1040 ------- 2 0.0 3.0 0 20 17 500
- 0.235032 2 3 tcp 1040 ------- 2 0.0 3.0 0 20 17 500
r 0.236864 2 3 tcp 1040 ------- 2 0.0 3.0 0 20 17 500
- 0.238472 1 2 tcp 1040 ------- 2 0.0 3.0 4 29 0 100
+ 0.24 0 1 tcp 1040 ------- 2 0.0 3.0 0 33 24 500
- 0.24 0 1 tcp 1040 ------- 2 0.0 3.0 0 33 24 500
r 0.241832 0 1 tcp 1040 ------- 2 0.0 3.0 0 33 24 500
+ 0.241832 1 2 tcp 1040 ------- 2 0.0 3.0 0 33 24 500
r 0.243352 1 2 tcp 1040 ------- 2 0.0 3.0 0 23 18 500
+ 0.243352 2 3 tcp 1040 ------- 2 0.0 3.0 0 23 18 500
- 0.243352 2 3 tcp 1040 ------- 2 0.0 3.0 0 23 18 500
r 0.245184 2 3 tcp 1040 ------- 2 0.0 3.0 0 23 18 500
- 0.246792 1 2 tcp 1040 ------- 2 0.0 3.0 0 30 23 500
+ 0.25 0 1 tcp 1040 ------- 2 0.0 3.0 0 34 25 500
- 0.25 0 1 tcp 1040 ------- 2 0.0 3.0 0 34 25 500
r 0.251672 1 2 tcp 1040 ------- 2 0.0 3.0 0 24 19 500
+ 0.251672 2 3 tcp 1040 ------- 2 0.0 3.0 0 24 19 500
- 0.251672 2 3 tcp 1040 ------- 2 0.0 3.0 0 24 19 500
r 0.251832 0 1 tcp 1040 ------- 2 0.0 3.0 0 34 25 500
+ 0.251832 1 2 tcp 1040 ------- 2 0.0 3.0 0 34 25 500
r 0.253504 2 3 tcp 1040 ------- 2 0.0 3.0 0 24 19 500
- 0.255112 1 2 tcp 1040 ------- 2 0.0 3.0 5 31 0 100
+ 0.26 0 1 tcp 1040 ------- 2 0.0 3.0 0 35 26 500
- 0.26 0 1 tcp 1040 ------- 2 0.0 3.0 0 35 26 500
r 0.260152 1 2 tcp 1040 ------- 2 0.0 3.0 0 25 20 500
+ 0.260152 2 3 tcp 1040 ------- 2 0.0 3.0 0 25 20 500
- 0.260152 2 3 tcp 1040 ------- 2 0.0 3.0 0 25 20 500
r 0.261832 0 1 tcp 1040 ------- 2 0.0 3.0 0 35 26 500
+ 0.261832 1 2 tcp 1040 ------- 2 0.0 3.0 0 35 26 500
r 0.261984 2 3 tcp 1040 ------- 2 0.0 3.0 0 25 20 500
- 0.263432 1 2 tcp 1040 ------- 2 0.0 3.0 6 32 0 100
+ 0.27 0 1 tcp 1040 ------- 2 0.0 3.0 0 36 27 500
- 0.27 0 1 tcp 1040 ------- 2 0.0 3.0 0 36 27 500
r 0.270152 1 2 tcp 1040 ------- 2 0.0 3.0 0 26 21 500
+ 0.270152 2 3 tcp 1040 ------- 2 0.0 3.0 0 26 21 500
- 0.270152 2 3 tcp 1040 ------- 2 0.0 3.0 0 26 21 500
- 0.271752 1 2 tcp 1040 ------- 2 0.0 3.0 0 33 24 500
r 0.271832 0 1 tcp 1040 ------- 2 0.0 3.0 0 36 27 500
+ 0.271832 1 2 tcp 1040 ------- 2 0.0 3.0 0 36 27 500
r 0.271984 2 3 tcp 1040 ------- 2 0.0 3.0 0 26 21 500
+ 0.28 0 1 tcp 1040 ------- 2 0.0 3.0 0 37 28 500
- 0.28 0 1 tcp 1040 ------- 2 0.0 3.0 0 37 28 500
- 0.280072 1 2 tcp 1040 ------- 2 0.0 3.0 0 34 25 500
r 0.280152 1 2 tcp 1040 ------- 2 0.0 3.0 0 27 22 500
+ 0.280152 2 3 tcp 1040 ------- 2 0.0 3.0 0 27 22 500
- 0.280152 2 3 tcp 1040 ------- 2 0.0 3.0 0 27 22 500
r 0.281832 0 1 tcp 1040 ------- 2 0.0 3.0 0 37 28 500
+ 0.281832 1 2 tcp 1040 ------- 2 0.0 3.0 0 37 28 500
r 0.281984 2 3 tcp 1040 ------- 2 0.0 3.0 0 27 22 500
- 0.288392 1 2 tcp 1040 ------- 2 0.0 3.0 0 35 26 500
r 0.288472 1 2 tcp 1040 ------- 2 0.0 3.0 3 28 0 100
+ 0.288472 2 3 tcp 1040 ------- 2 0.0 3.0 3 28 0 100
- 0.288472 2 3 tcp 1040 ------- 2 0.0 3.0 3 28 0 100
+ 0.29 0 1 tcp 1040 ------- 2 0.0 3.0 0 38 29 500
- 0.29 0 1 tcp 1040 ------- 2 0.0 3.0 0 38 29 500
r 0.290304 2 3 tcp 1040 ------- 2 0.0 3.0 3 28 0 100
+ 0.290304 3 2 ack 40 ------- 2 3.0 0.0 3 39 0 999
- 0.290304 3 2 ack 40 ------- 2 3.0 0.0 3 39 0 999
r 0.291336 3 2 ack 40 ------- 2 3.0 0.0 3 39 0 999
+ 0.291336 2 1 ack 40 ------- 2 3.0 0.0 3 39 0 999
- 0.291336 2 1 ack 40 ------- 2 3.0 0.0 3 39 0 999
r 0.291832 0 1 tcp 1040 ------- 2 0.0 3.0 0 38 29 500
+ 0.291832 1 2 tcp 1040 ------- 2 0.0 3.0 0 38 29 500
- 0.296712 1 2 tcp 1040 ------- 2 0.0 3.0 0 36 27 500
r 0.296792 1 2 tcp 1040 ------- 2 0.0 3.0 4 29 0 100
+ 0.296792 2 3 tcp 1040 ------- 2 0.0 3.0 4 29 0 100
- 0.296792 2 3 tcp 1040 ------- 2 0.0 3.0 4 29 0 100
r 0.298624 2 3 tcp 1040 ------- 2 0.0 3.0 4 29 0 100
+ 0.298624 3 2 ack 40 ------- 2 3.0 0.0 4 40 0 999
- 0.298624 3 2 ack 40 ------- 2 3.0 0.0 4 40 0 999
r 0.299656 3 2 ack 40 ------- 2 3.0 0.0 4 40 0 999
+ 0.299656 2 1 ack 40 ------- 2 3.0 0.0 4 40 0 999
- 0.299656 2 1 ack 40 ------- 2 3.0 0.0 4 40 0 999
+ 0.3 0 1 tcp 1040 ------- 2 0.0 3.0 0 41 30 500
- 0.3 0 1 tcp 1040 ------- 2 0.0 3.0 0 41 30 500
r 0.301832 0 1 tcp 1040 ------- 2 0.0 3.0 0 41 30 500
+ 0.301832 1 2 tcp 1040 ------- 2 0.0 3.0 0 41 30 500
- 0.305032 1 2 tcp 1040 ------- 2 0.0 3.0 0 37 28 500
r 0.305112 1 2 tcp 1040 ------- 2 0.0 3.0 0 30 23 500
+ 0.305112 2 3 tcp 1040 ------- 2 0.0 3.0 0 30 23 500
- 0.305112 2 3 tcp 1040 ------- 2 0.0 3.0 0 30 23 500
r 0.306944 2 3 tcp 1040 ------- 2 0.0 3.0 0 30 23 500
+ 0.31 0 1 tcp 1040 ------- 2 0.0 3.0 0 42 31 500
- 0.31 0 1 tcp 1040 ------- 2 0.0 3.0 0 42 31 500
r 0.311832 0 1 tcp 1040 ------- 2 0.0 3.0 0 42 31 500
+ 0.311832 1 2 tcp 1040 ------- 2 0.0 3.0 0 42 31 500
- 0.313352 1 2 tcp 1040 ------- 2 0.0 3.0 0 38 29 500
r 0.313432 1 2 tcp 1040 ------- 2 0.0 3.0 5 31 0 100
+ 0.313432 2 3 tcp 1040 ------- 2 0.0 3.0 5 31 0 100
- 0.313432 2 3 tcp 1040 ------- 2 0.0 3.0 5 31 0 100
r 0.315264 2 3 tcp 1040 ------- 2 0.0 3.0 5 31 0 100
+ 0.315264 3 2 ack 40 ------- 2 3.0 0.0 5 43 0 999
- 0.315264 3 2 ack 40 ------- 2 3.0 0.0 5 43 0 999
r 0.316296 3 2 ack 40 ------- 2 3.0 0.0 5 43 0 999
+ 0.316296 2 1 ack 40 ------- 2 3.0 0.0 5 43 0 999
- 0.316296 2 1 ack 40 ------- 2 3.0 0.0 5 43 0 999
+ 0.32 0 1 tcp 1040 ------- 2 0.0 3.0 0 44 32 500
- 0.32 0 1 tcp 1040 ------- 2 0.0 3.0 0 44 32 500
- 0.321672 1 2 tcp 1040 ------- 2 0.0 3.0 0 41 30 500
r 0.321752 1 2 tcp 1040 ------- 2 0.0 3.0 6 32 0 100
+ 0.321752 2 3 tcp 1040 ------- 2 0.0 3.0 6 32 0 100
- 0.321752 2 3 tcp 1040 ------- 2 0.0 3.0 6 32 0 100
r 0.321832 0 1 tcp 1040 ------- 2 0.0 3.0 0 44 32 500
+ 0.321832 1 2 tcp 1040 ------- 2 0.0 3.0 0 44 32 500
r 0.323584 2 3 tcp 1040 ------- 2 0.0 3.0 6 32 0 100
+ 0.323584 3 2 ack 40 ------- 2 3.0 0.0 6 45 0 999
- 0.323584 3 2 ack 40 ------- 2 3.0 0.0 6 45 0 999
r 0.324616 3 2 ack 40 ------- 2 3.0 0.0 6 45 0 999
+ 0.324616 2 1 ack 40 ------- 2 3.0 0.0 6 45 0 999
- 0.324616 2 1 ack 40 ------- 2 3.0 0.0 6 45 0 999
- 0.329992 1 2 tcp 1040 ------- 2 0.0 3.0 0 42 31 500
+ 0.33 0 1 tcp 1040 ------- 2 0.0 3.0 0 46 33 500
- 0.33 0 1 tcp 1040 ------- 2 0.0 3.0 0 46 33 500
r 0.330072 1 2 tcp 1040 ------- 2 0.0 3.0 0 33 24 500
+ 0.330072 2 3 tcp 1040 ------- 2 0.0 3.0 0 33 24 500
- 0.330072 2 3 tcp 1040 ------- 2 0.0 3.0 0 33 24 500
r 0.331832 0 1 tcp 1040 ------- 2 0.0 3.0 0 46 33 500
+ 0.331832 1 2 tcp 1040 ------- 2 0.0 3.0 0 46 33 500
r 0.331904 2 3 tcp 1040 ------- 2 0.0 3.0 0 33 24 500
- 0.338312 1 2 tcp 1040 ------- 2 0.0 3.0 0 44 32 500
r 0.338392 1 2 tcp 1040 ------- 2 0.0 3.0 0 34 25 500
+ 0.338392 2 3 tcp 1040 ------- 2 0.0 3.0 0 34 25 500
- 0.338392 2 3 tcp 1040 ------- 2 0.0 3.0 0 34 25 500
+ 0.34 0 1 tcp 1040 ------- 2 0.0 3.0 0 47 34 500
- 0.34 0 1 tcp 1040 ------- 2 0.0 3.0 0 47 34 500
r 0.340224 2 3 tcp 1040 ------- 2 0.0 3.0 0 34 25 500
r 0.341656 2 1 ack 40 ------- 2 3.0 0.0 3 39 0 999
+ 0.341656 1 0 ack 40 ------- 2 3.0 0.0 3 39 0 999
- 0.341656 1 0 ack 40 ------- 2 3.0 0.0 3 39 0 999
r 0.341832 0 1 tcp 1040 ------- 2 0.0 3.0 0 47 34 500
+ 0.341832 1 2 tcp 1040 ------- 2 0.0 3.0 0 47 34 500
r 0.342688 1 0 ack 40 ------- 2 3.0 0.0 3 39 0 999
+ 0.342688 0 1 tcp 1040 ------- 2 0.0 3.0 7 48 0 100
- 0.342688 0 1 tcp 1040 ------- 2 0.0 3.0 7 48 0 100
+ 0.342688 0 1 tcp 1040 ------- 2 0.0 3.0 8 49 0 100
- 0.34352 0 1 tcp 1040 ------- 2 0.0 3.0 8 49 0 100
r 0.34452 0 1 tcp 1040 ------- 2 0.0 3.0 7 48 0 100
+ 0.34452 1 2 tcp 1040 ------- 2 0.0 3.0 7 48 0 100
r 0.345352 0 1 tcp 1040 ------- 2 0.0 3.0 8 49 0 100
+ 0.345352 1 2 tcp 1040 ------- 2 0.0 3.0 8 49 0 100
- 0.346632 1 2 tcp 1040 ------- 2 0.0 3.0 0 46 33 500
r 0.346712 1 2 tcp 1040 ------- 2 0.0 3.0 0 35 26 500
+ 0.346712 2 3 tcp 1040 ------- 2 0.0 3.0 0 35 26 500
- 0.346712 2 3 tcp 1040 ------- 2 0.0 3.0 0 35 26 500
r 0.348544 2 3 tcp 1040 ------- 2 0.0 3.0 0 35 26 500
r 0.349976 2 1 ack 40 ------- 2 3.0 0.0 4 40 0 999
+ 0.349976 1 0 ack 40 ------- 2 3.0 0.0 4 40 0 999
- 0.349976 1 0 ack 40 ------- 2 3.0 0.0 4 40 0 999
+ 0.35 0 1 tcp 1040 ------- 2 0.0 3.0 0 50 35 500
- 0.35 0 1 tcp 1040 ------- 2 0.0 3.0 0 50 35 500
r 0.351008 1 0 ack 40 ------- 2 3.0 0.0 4 40 0 999
+ 0.351008 0 1 tcp 1040 ------- 2 0.0 3.0 9 51 0 100
- 0.351008 0 1 tcp 1040 ------- 2 0.0 3.0 9 51 0 100
+ 0.351008 0 1 tcp 1040 ------- 2 0.0 3.0 10 52 0 100
r 0.351832 0 1 tcp 1040 ------- 2 0.0 3.0 0 50 35 500
+ 0.351832 1 2 tcp 1040 ------- 2 0.0 3.0 0 50 35 500
- 0.35184 0 1 tcp 1040 ------- 2 0.0 3.0 10 52 0 100
r 0.35284 0 1 tcp 1040 ------- 2 0.0 3.0 9 51 0 100
+ 0.35284 1 2 tcp 1040 ------- 2 0.0 3.0 9 51 0 100
r 0.353672 0 1 tcp 1040 ------- 2 0.0 3.0 10 52 0 100
+ 0.353672 1 2 tcp 1040 ------- 2 0.0 3.0 10 52 0 100
- 0.354952 1 2 tcp 1040 ------- 2 0.0 3.0 0 47 34 500
r 0.355032 1 2 tcp 1040 ------- 2 0.0 3.0 0 36 27 500
+ 0.355032 2 3 tcp 1040 ------- 2 0.0 3.0 0 36 27 500
- 0.355032 2 3 tcp 1040 ------- 2 0.0 3.0 0 36 27 500
r 0.356864 2 3 tcp 1040 ------- 2 0.0 3.0 0 36 27 500
+ 0.36 0 1 tcp 1040 ------- 2 0.0 3.0 0 53 36 500
- 0.36 0 1 tcp 1040 ------- 2 0.0 3.0 0 53 36 500
r 0.361832 0 1 tcp 1040 ------- 2 0.0 3.0 0 53 36 500
+ 0.361832 1 2 tcp 1040 ------- 2 0.0 3.0 0 53 36 500
- 0.363272 1 2 tcp 1040 ------- 2 0.0 3.0 7 48 0 100
r 0.363352 1 2 tcp 1040 ------- 2 0.0 3.0 0 37 28 500
+ 0.363352 2 3 tcp 1040 ------- 2 0.0 3.0 0 37 28 500
- 0.363352 2 3 tcp 1040 ------- 2 0.0 3.0 0 37 28 500
r 0.365184 2 3 tcp 1040 ------- 2 0.0 3.0 0 37 28 500
r 0.366616 2 1 ack 40 ------- 2 3.0 0.0 5 43 0 999
+ 0.366616 1 0 ack 40 ------- 2 3.0 0.0 5 43 0 999
- 0.366616 1 0 ack 40 ------- 2 3.0 0.0 5 43 0 999
r 0.367648 1 0 ack 40 ------- 2 3.0 0.0 5 43 0 999
+ 0.367648 0 1 tcp 1040 ------- 2 0.0 3.0 11 54 0 100
- 0.367648 0 1 tcp 1040 ------- 2 0.0 3.0 11 54 0 100
+ 0.367648 0 1 tcp 1040 ------- 2 0.0 3.0 12 55 0 100
- 0.36848 0 1 tcp 1040 ------- 2 0.0 3.0 12 55 0 100
r 0.36948 0 1 tcp 1040 ------- 2 0.0 3.0 11 54 0 100
+ 0.36948 1 2 tcp 1040 ------- 2 0.0 3.0 11 54 0 100
+ 0.37 0 1 tcp 1040 ------- 2 0.0 3.0 0 56 37 500
- 0.37 0 1 tcp 1040 ------- 2 0.0 3.0 0 56 37 500
r 0.370312 0 1 tcp 1040 ------- 2 0.0 3.0 12 55 0 100
+ 0.370312 1 2 tcp 1040 ------- 2 0.0 3.0 12 55 0 100
- 0.371592 1 2 tcp 1040 ------- 2 0.0 3.0 8 49 0 100
r 0.371672 1 2 tcp 1040 ------- 2 0.0 3.0 0 38 29 500
+ 0.371672 2 3 tcp 1040 ------- 2 0.0 3.0 0 38 29 500
- 0.371672 2 3 tcp 1040 ------- 2 0.0 3.0 0 38 29 500
r 0.371832 0 1 tcp 1040 ------- 2 0.0 3.0 0 56 37 500
+ 0.371832 1 2 tcp 1040 ------- 2 0.0 3.0 0 56 37 500
r 0.373504 2 3 tcp 1040 ------- 2 0.0 3.0 0 38 29 500
r 0.374936 2 1 ack 40 ------- 2 3.0 0.0 6 45 0 999
+ 0.374936 1 0 ack 40 ------- 2 3.0 0.0 6 45 0 999
- 0.374936 1 0 ack 40 ------- 2 3.0 0.0 6 45 0 999
r 0.375968 1 0 ack 40 ------- 2 3.0 0.0 6 45 0 999
+ 0.375968 0 1 tcp 1040 ------- 2 0.0 3.0 13 57 0 100
- 0.375968 0 1 tcp 1040 ------- 2 0.0 3.0 13 57 0 100
+ 0.375968 0 1 tcp 1040 ------- 2 0.0 3.0 14 58 0 100
- 0.3768 0 1 tcp 1040 ------- 2 0.0 3.0 14 58 0 100
r 0.3778 0 1 tcp 1040 ------- 2 0.0 3.0 13 57 0 100
+ 0.3778 1 2 tcp 1040 ------- 2 0.0 3.0 13 57 0 100
r 0.378632 0 1 tcp 1040 ------- 2 0.0 3.0 14 58 0 100
+ 0.378632 1 2 tcp 1040 ------- 2 0.0 3.0 14 58 0 100
- 0.379912 1 2 tcp 1040 ------- 2 0.0 3.0 0 50 35 500
r 0.379992 1 2 tcp 1040 ------- 2 0.0 3.0 0 41 30 500
+ 0.379992 2 3 tcp 1040 ------- 2 0.0 3.0 0 41 30 500
- 0.379992 2 3 tcp 1040 ------- 2 0.0 3.0 0 41 30 500
+ 0.38 0 1 tcp 1040 ------- 2 0.0 3.0 0 59 38 500
- 0.38 0 1 tcp 1040 ------- 2 0.0 3.0 0 59 38 500
r 0.381824 2 3 tcp 1040 ------- 2 0.0 3.0 0 41 30 500
r 0.381832 0 1 tcp 1040 ------- 2 0.0 3.0 0 59 38 500
+ 0.381832 1 2 tcp 1040 ------- 2 0.0 3.0 0 59 38 500
- 0.388232 1 2 tcp 1040 ------- 2 0.0 3.0 9 51 0 100
r 0.388312 1 2 tcp 1040 ------- 2 0.0 3.0 0 42 31 500
+ 0.388312 2 3 tcp 1040 ------- 2 0.0 3.0 0 42 31 500
- 0.388312 2 3 tcp 1040 ------- 2 0.0 3.0 0 42 31 500
+ 0.39 0 1 tcp 1040 ------- 2 0.0 3.0 0 60 39 500
- 0.39 0 1 tcp 1040 ------- 2 0.0 3.0 0 60 39 500
r 0.390144 2 3 tcp 1040 ------- 2 0.0 3.0 0 42 31 500
r 0.391832 0 1 tcp 1040 ------- 2 0.0 3.0 0 60 39 500
+ 0.391832 1 2 tcp 1040 ------- 2 0.0 3.0 0 60 39 500
- 0.396552 1 2 tcp 1040 ------- 2 0.0 3.0 10 52 0 100
r 0.396632 1 2 tcp 1040 ------- 2 0.0 3.0 0 44 32 500
+ 0.396632 2 3 tcp 1040 ------- 2 0.0 3.0 0 44 32 500
- 0.396632 2 3 tcp 1040 ------- 2 0.0 3.0 0 44 32 500
r 0.398464 2 3 tcp 1040 ------- 2 0.0 3.0 0 44 32 500
+ 0.4 0 1 tcp 1040 ------- 2 0.0 3.0 0 61 40 500
- 0.4 0 1 tcp 1040 ------- 2 0.0 3.0 0 61 40 500
r 0.401832 0 1 tcp 1040 ------- 2 0.0 3.0 0 61 40 500
+ 0.401832 1 2 tcp 1040 ------- 2 0.0 3.0 0 61 40 500
- 0.404872 1 2 tcp 1040 ------- 2 0.0 3.0 0 53 36 500
r 0.404952 1 2 tcp 1040 ------- 2 0.0 3.0 0 46 33 500
+ 0.404952 2 3 tcp 1040 ------- 2 0.0 3.0 0 46 33 500
- 0.404952 2 3 tcp 1040 ------- 2 0.0 3.0 0 46 33 500
r 0.406784 2 3 tcp 1040 ------- 2 0.0 3.0 0 46 33 500
+ 0.41 0 1 tcp 1040 ------- 2 0.0 3.0 0 62 41 500
- 0.41 0 1 tcp 1040 ------- 2 0.0 3.0 0 62 41 500
r 0.411832 0 1 tcp 1040 ------- 2 0.0 3.0 0 62 41 500
+ 0.411832 1 2 tcp 1040 ------- 2 0.0 3.0 0 62 41 500
- 0.413192 1 2 tcp 1040 ------- 2 0.0 3.0 11 54 0 100
r 0.413272 1 2 tcp 1040 ------- 2 0.0 3.0 0 47 34 500
+ 0.413272 2 3 tcp 1040 ------- 2 0.0 3.0 0 47 34 500
- 0.413272 2 3 tcp 1040 ------- 2 0.0 3.0 0 47 34 500
r 0.415104 2 3 tcp 1040 ------- 2 0.0 3.0 0 47 34 500
+ 0.42 0 1 tcp 1040 ------- 2 0.0 3.0 0 63 42 500
- 0.42 0 1 tcp 1040 ------- 2 0.0 3.0 0 63 42 500
- 0.421512 1 2 tcp 1040 ------- 2 0.0 3.0 12 55 0 100
r 0.421592 1 2 tcp 1040 ------- 2 0.0 3.0 7 48 0 100
+ 0.421592 2 3 tcp 1040 ------- 2 0.0 3.0 7 48 0 100
- 0.421592 2 3 tcp 1040 ------- 2 0.0 3.0 7 48 0 100
r 0.421832 0 1 tcp 1040 ------- 2 0.0 3.0 0 63 42 500
+ 0.421832 1 2 tcp 1040 ------- 2 0.0 3.0 0 63 42 500
r 0.423424 2 3 tcp 1040 ------- 2 0.0 3.0 7 48 0 100
+ 0.423424 3 2 ack 40 ------- 2 3.0 0.0 7 64 0 999
- 0.423424 3 2 ack 40 ------- 2 3.0 0.0 7 64 0 999
r 0.424456 3 2 ack 40 ------- 2 3.0 0.0 7 64 0 999
+ 0.424456 2 1 ack 40 ------- 2 3.0 0.0 7 64 0 999
- 0.424456 2 1 ack 40 ------- 2 3.0 0.0 7 64 0 999
- 0.429832 1 2 tcp 1040 ------- 2 0.0 3.0 0 56 37 500
r 0.429912 1 2 tcp 1040 ------- 2 0.0 3.0 8 49 0 100
+ 0.429912 2 3 tcp 1040 ------- 2 0.0 3.0 8 49 0 100
- 0.429912 2 3 tcp 1040 ------- 2 0.0 3.0 8 49 0 100
+ 0.43 0 1 tcp 1040 ------- 2 0.0 3.0 0 65 43 500
- 0.43 0 1 tcp 1040 ------- 2 0.0 3.0 0 65 43 500
r 0.431744 2 3 tcp 1040 ------- 2 0.0 3.0 8 49 0 100
+ 0.431744 3 2 ack 40 ------- 2 3.0 0.0 8 66 0 999
- 0.431744 3 2 ack 40 ------- 2 3.0 0.0 8 66 0 999
r 0.431832 0 1 tcp 1040 ------- 2 0.0 3.0 0 65 43 500
+ 0.431832 1 2 tcp 1040 ------- 2 0.0 3.0 0 65 43 500
r 0.432776 3 2 ack 40 ------- 2 3.0 0.0 8 66 0 999
+ 0.432776 2 1 ack 40 ------- 2 3.0 0.0 8 66 0 999
- 0.432776 2 1 ack 40 ------- 2 3.0 0.0 8 66 0 999
- 0.438152 1 2 tcp 1040 ------- 2 0.0 3.0 13 57 0 100
r 0.438232 1 2 tcp 1040 ------- 2 0.0 3.0 0 50 35 500
+ 0.438232 2 3 tcp 1040 ------- 2 0.0 3.0 0 50 35 500
- 0.438232 2 3 tcp 1040 ------- 2 0.0 3.0 0 50 35 500
+ 0.44 0 1 tcp 1040 ------- 2 0.0 3.0 0 67 44 500
- 0.44 0 1 tcp 1040 ------- 2 0.0 3.0 0 67 44 500
r 0.440064 2 3 tcp 1040 ------- 2 0.0 3.0 0 50 35 500
r 0.441832 0 1 tcp 1040 ------- 2 0.0 3.0 0 67 44 500
+ 0.441832 1 2 tcp 1040 ------- 2 0.0 3.0 0 67 44 500
- 0.446472 1 2 tcp 1040 ------- 2 0.0 3.0 14 58 0 100
r 0.446552 1 2 tcp 1040 ------- 2 0.0 3.0 9 51 0 100
+ 0.446552 2 3 tcp 1040 ------- 2 0.0 3.0 9 51 0 100
- 0.446552 2 3 tcp 1040 ------- 2 0.0 3.0 9 51 0 100
r 0.448384 2 3 tcp 1040 ------- 2 0.0 3.0 9 51 0 100
+ 0.448384 3 2 ack 40 ------- 2 3.0 0.0 9 68 0 999
- 0.448384 3 2 ack 40 ------- 2 3.0 0.0 9 68 0 999
r 0.449416 3 2 ack 40 ------- 2 3.0 0.0 9 68 0 999
+ 0.449416 2 1 ack 40 ------- 2 3.0 0.0 9 68 0 999
- 0.449416 2 1 ack 40 ------- 2 3.0 0.0 9 68 0 999
+ 0.45 0 1 tcp 1040 ------- 2 0.0 3.0 0 69 45 500
- 0.45 0 1 tcp 1040 ------- 2 0.0 3.0 0 69 45 500
r 0.451832 0 1 tcp 1040 ------- 2 0.0 3.0 0 69 45 500
+ 0.451832 1 2 tcp 1040 ------- 2 0.0 3.0 0 69 45 500
- 0.454792 1 2 tcp 1040 ------- 2 0.0 3.0 0 59 38 500
r 0.454872 1 2 tcp 1040 ------- 2 0.0 3.0 10 52 0 100
+ 0.454872 2 3 tcp 1040 ------- 2 0.0 3.0 10 52 0 100
- 0.454872 2 3 tcp 1040 ------- 2 0.0 3.0 10 52 0 100
r 0.456704 2 3 tcp 1040 ------- 2 0.0 3.0 10 52 0 100
+ 0.456704 3 2 ack 40 ------- 2 3.0 0.0 10 70 0 999
- 0.456704 3 2 ack 40 ------- 2 3.0 0.0 10 70 0 999
r 0.457736 3 2 ack 40 ------- 2 3.0 0.0 10 70 0 999
+ 0.457736 2 1 ack 40 ------- 2 3.0 0.0 10 70 0 999
- 0.457736 2 1 ack 40 ------- 2 3.0 0.0 10 70 0 999
+ 0.46 0 1 tcp 1040 ------- 2 0.0 3.0 0 71 46 500
- 0.46 0 1 tcp 1040 ------- 2 0.0 3.0 0 71 46 500
r 0.461832 0 1 tcp 1040 ------- 2 0.0 3.0 0 71 46 500
+ 0.461832 1 2 tcp 1040 ------- 2 0.0 3.0 0 71 46 500
- 0.463112 1 2 tcp 1040 ------- 2 0.0 3.0 0 60 39 500
r 0.463192 1 2 tcp 1040 ------- 2 0.0 3.0 0 53 36 500
+ 0.463192 2 3 tcp 1040 ------- 2 0.0 3.0 0 53 36 500
- 0.463192 2 3 tcp 1040 ------- 2 0.0 3.0 0 53 36 500
r 0.465024 2 3 tcp 1040 ------- 2 0.0 3.0 0 53 36 500
+ 0.47 0 1 tcp 1040 ------- 2 0.0 3.0 0 72 47 500
- 0.47 0 1 tcp 1040 ------- 2 0.0 3.0 0 72 47 500
- 0.471432 1 2 tcp 1040 ------- 2 0.0 3.0 0 61 40 500
r 0.471512 1 2 tcp 1040 ------- 2 0.0 3.0 11 54 0 100