+ 0 0 1 tcp 40 ------- 2 0.0 3.0 0 0 0 999
- 0 0 1 tcp 40 ------- 2 0.0 3.0 0 0 0 999
r 0.001032 0 1 tcp 40 ------- 2 0.0 3.0 0 0 0 999
+ 0.001032 1 2 tcp 40 ------- 2 0.0 3.0 0 0 0 999
- 0.001032 1 2 tcp 40 ------- 2 0.0 3.0 0 0 0 999
r 0.051352 1 2 tcp 40 ------- 2 0.0 3.0 0 0 0 999
+ 0.051352 2 3 tcp 40 ------- 2 0.0 3.0 0 0 0 999
- 0.051352 2 3 tcp 40 ------- 2 0.0 3.0 0 0 0 999
r 0.052384 2 3 tcp 40 ------- 2 0.0 3.0 0 0 0 999
+ 0.052384 3 2 ack 40 ------- 2 3.0 0.0 0 1 0 999
- 0.052384 3 2 ack 40 ------- 2 3.0 0.0 0 1 0 999
r 0.053416 3 2 ack 40 ------- 2 3.0 0.0 0 1 0 999
+ 0.053416 2 1 ack 40 ------- 2 3.0 0.0 0 1 0 999
- 0.053416 2 1 ack 40 ------- 2 3.0 0.0 0 1 0 999
r 0.103736 2 1 ack 40 ------- 2 3.0 0.0 0 1 0 999
+ 0.103736 1 0 ack 40 ------- 2 3.0 0.0 0 1 0 999
- 0.103736 1 0 ack 40 ------- 2 3.0 0.0 0 1 0 999
r 0.104768 1 0 ack 40 ------- 2 3.0 0.0 0 1 0 999
+ 0.104768 0 1 tcp 1040 ------- 2 0.0 3.0 1 2 0 100
- 0.104768 0 1 tcp 1040 ------- 2 0.0 3.0 1 2 0 100
+ 0.104768 0 1 tcp 1040 ------- 2 0.0 3.0 2 3 0 100
- 0.1056 0 1 tcp 1040 ------- 2 0.0 3.0 2 3 0 100
r 0.1066 0 1 tcp 1040 ------- 2 0.0 3.0 1 2 0 100
+ 0.1066 1 2 tcp 1040 ------- 2 0.0 3.0 1 2 0 100
- 0.1066 1 2 tcp 1040 ------- 2 0.0 3.0 1 2 0 100
r 0.107432 0 1 tcp 1040 ------- 2 0.0 3.0 2 3 0 100
+ 0.107432 1 2 tcp 1040 ------- 2 0.0 3.0 2 3 0 100
- 0.11492 1 2 tcp 1040 ------- 2 0.0 3.0 2 3 0 100
r 0.16492 1 2 tcp 1040 ------- 2 0.0 3.0 1 2 0 100
+ 0.16492 2 3 tcp 1040 ------- 2 0.0 3.0 1 2 0 100
- 0.16492 2 3 tcp 1040 ------- 2 0.0 3.0 1 2 0 100
r 0.166752 2 3 tcp 1040 ------- 2 0.0 3.0 1 2 0 100
+ 0.166752 3 2 ack 40 ------- 2 3.0 0.0 1 4 0 999
- 0.166752 3 2 ack 40 ------- 2 3.0 0.0 1 4 0 999
r 0.167784 3 2 ack 40 ------- 2 3.0 0.0 1 4 0 999
+ 0.167784 2 1 ack 40 ------- 2 3.0 0.0 1 4 0 999
- 0.167784 2 1 ack 40 ------- 2 3.0 0.0 1 4 0 999
r 0.17324 1 2 tcp 1040 ------- 2 0.0 3.0 2 3 0 100
+ 0.17324 2 3 tcp 1040 ------- 2 0.0 3.0 2 3 0 100
- 0.17324 2 3 tcp 1040 ------- 2 0.0 3.0 2 3 0 100
r 0.175072 2 3 tcp 1040 ------- 2 0.0 3.0 2 3 0 100
+ 0.175072 3 2 ack 40 ------- 2 3.0 0.0 2 5 0 999
- 0.175072 3 2 ack 40 ------- 2 3.0 0.0 2 5 0 999
r 0.176104 3 2 ack 40 ------- 2 3.0 0.0 2 5 0 999
+ 0.176104 2 1 ack 40 ------- 2 3.0 0.0 2 5 0 999
- 0.176104 2 1 ack 40 ------- 2 3.0 0.0 2 5 0 999
r 0.218104 2 1 ack 40 ------- 2 3.0 0.0 1 4 0 999
+ 0.218104 1 0 ack 40 ------- 2 3.0 0.0 1 4 0 999
- 0.218104 1 0 ack 40 ------- 2 3.0 0.0 1 4 0 999
r 0.219136 1 0 ack 40 ------- 2 3.0 0.0 1 4 0 999
+ 0.219136 0 1 tcp 1040 ------- 2 0.0 3.0 3 6 0 100
- 0.219136 0 1 tcp 1040 ------- 2 0.0 3.0 3 6 0 100
+ 0.219136 0 1 tcp 1040 ------- 2 0.0 3.0 4 7 0 100
- 0.219968 0 1 tcp 1040 ------- 2 0.0 3.0 4 7 0 100
r 0.220968 0 1 tcp 1040 ------- 2 0.0 3.0 3 6 0 100
+ 0.220968 1 2 tcp 1040 ------- 2 0.0 3.0 3 6 0 100
- 0.220968 1 2 tcp 1040 ------- 2 0.0 3.0 3 6 0 100
r 0.2218 0 1 tcp 1040 ------- 2 0.0 3.0 4 7 0 100
+ 0.2218 1 2 tcp 1040 ------- 2 0.0 3.0 4 7 0 100
r 0.226424 2 1 ack 40 ------- 2 3.0 0.0 2 5 0 999
+ 0.226424 1 0 ack 40 ------- 2 3.0 0.0 2 5 0 999
- 0.226424 1 0 ack 40 ------- 2 3.0 0.0 2 5 0 999
r 0.227456 1 0 ack 40 ------- 2 3.0 0.0 2 5 0 999
+ 0.227456 0 1 tcp 1040 ------- 2 0.0 3.0 5 8 0 100
- 0.227456 0 1 tcp 1040 ------- 2 0.0 3.0 5 8 0 100
+ 0.227456 0 1 tcp 1040 ------- 2 0.0 3.0 6 9 0 100
- 0.228288 0 1 tcp 1040 ------- 2 0.0 3.0 6 9 0 100
- 0.229288 1 2 tcp 1040 ------- 2 0.0 3.0 4 7 0 100
r 0.229288 0 1 tcp 1040 ------- 2 0.0 3.0 5 8 0 100
+ 0.229288 1 2 tcp 1040 ------- 2 0.0 3.0 5 8 0 100
r 0.23012 0 1 tcp 1040 ------- 2 0.0 3.0 6 9 0 100
+ 0.23012 1 2 tcp 1040 ------- 2 0.0 3.0 6 9 0 100
- 0.237608 1 2 tcp 1040 ------- 2 0.0 3.0 5 8 0 100
- 0.245928 1 2 tcp 1040 ------- 2 0.0 3.0 6 9 0 100
r 0.279288 1 2 tcp 1040 ------- 2 0.0 3.0 3 6 0 100
+ 0.279288 2 3 tcp 1040 ------- 2 0.0 3.0 3 6 0 100
- 0.279288 2 3 tcp 1040 ------- 2 0.0 3.0 3 6 0 100
r 0.28112 2 3 tcp 1040 ------- 2 0.0 3.0 3 6 0 100
+ 0.28112 3 2 ack 40 ------- 2 3.0 0.0 3 10 0 999
- 0.28112 3 2 ack 40 ------- 2 3.0 0.0 3 10 0 999
r 0.282152 3 2 ack 40 ------- 2 3.0 0.0 3 10 0 999
+ 0.282152 2 1 ack 40 ------- 2 3.0 0.0 3 10 0 999
- 0.282152 2 1 ack 40 ------- 2 3.0 0.0 3 10 0 999
r 0.287608 1 2 tcp 1040 ------- 2 0.0 3.0 4 7 0 100
+ 0.287608 2 3 tcp 1040 ------- 2 0.0 3.0 4 7 0 100
- 0.287608 2 3 tcp 1040 ------- 2 0.0 3.0 4 7 0 100
r 0.28944 2 3 tcp 1040 ------- 2 0.0 3.0 4 7 0 100
+ 0.28944 3 2 ack 40 ------- 2 3.0 0.0 4 11 0 999
- 0.28944 3 2 ack 40 ------- 2 3.0 0.0 4 11 0 999
r 0.290472 3 2 ack 40 ------- 2 3.0 0.0 4 11 0 999
+ 0.290472 2 1 ack 40 ------- 2 3.0 0.0 4 11 0 999
- 0.290472 2 1 ack 40 ------- 2 3.0 0.0 4 11 0 999
r 0.295928 1 2 tcp 1040 ------- 2 0.0 3.0 5 8 0 100
+ 0.295928 2 3 tcp 1040 ------- 2 0.0 3.0 5 8 0 100
- 0.295928 2 3 tcp 1040 ------- 2 0.0 3.0 5 8 0 100
r 0.29776 2 3 tcp 1040 ------- 2 0.0 3.0 5 8 0 100
+ 0.29776 3 2 ack 40 ------- 2 3.0 0.0 5 12 0 999
- 0.29776 3 2 ack 40 ------- 2 3.0 0.0 5 12 0 999
r 0.298792 3 2 ack 40 ------- 2 3.0 0.0 5 12 0 999
+ 0.298792 2 1 ack 40 ------- 2 3.0 0.0 5 12 0 999
- 0.298792 2 1 ack 40 ------- 2 3.0 0.0 5 12 0 999
r 0.304248 1 2 tcp 1040 ------- 2 0.0 3.0 6 9 0 100
+ 0.304248 2 3 tcp 1040 ------- 2 0.0 3.0 6 9 0 100
- 0.304248 2 3 tcp 1040 ------- 2 0.0 3.0 6 9 0 100
r 0.30608 2 3 tcp 1040 ------- 2 0.0 3.0 6 9 0 100
+ 0.30608 3 2 ack 40 ------- 2 3.0 0.0 6 13 0 999
- 0.30608 3 2 ack 40 ------- 2 3.0 0.0 6 13 0 999
r 0.307112 3 2 ack 40 ------- 2 3.0 0.0 6 13 0 999
+ 0.307112 2 1 ack 40 ------- 2 3.0 0.0 6 13 0 999
- 0.307112 2 1 ack 40 ------- 2 3.0 0.0 6 13 0 999
r 0.332472 2 1 ack 40 ------- 2 3.0 0.0 3 10 0 999
+ 0.332472 1 0 ack 40 ------- 2 3.0 0.0 3 10 0 999
- 0.332472 1 0 ack 40 ------- 2 3.0 0.0 3 10 0 999
r 0.333504 1 0 ack 40 ------- 2 3.0 0.0 3 10 0 999
+ 0.333504 0 1 tcp 1040 ------- 2 0.0 3.0 7 14 0 100
- 0.333504 0 1 tcp 1040 ------- 2 0.0 3.0 7 14 0 100
+ 0.333504 0 1 tcp 1040 ------- 2 0.0 3.0 8 15 0 100
- 0.334336 0 1 tcp 1040 ------- 2 0.0 3.0 8 15 0 100
r 0.335336 0 1 tcp 1040 ------- 2 0.0 3.0 7 14 0 100
+ 0.335336 1 2 tcp 1040 ------- 2 0.0 3.0 7 14 0 100
- 0.335336 1 2 tcp 1040 ------- 2 0.0 3.0 7 14 0 100
r 0.336168 0 1 tcp 1040 ------- 2 0.0 3.0 8 15 0 100
+ 0.336168 1 2 tcp 1040 ------- 2 0.0 3.0 8 15 0 100
r 0.340792 2 1 ack 40 ------- 2 3.0 0.0 4 11 0 999
+ 0.340792 1 0 ack 40 ------- 2 3.0 0.0 4 11 0 999
- 0.340792 1 0 ack 40 ------- 2 3.0 0.0 4 11 0 999
r 0.341824 1 0 ack 40 ------- 2 3.0 0.0 4 11 0 999
+ 0.341824 0 1 tcp 1040 ------- 2 0.0 3.0 9 16 0 100
- 0.341824 0 1 tcp 1040 ------- 2 0.0 3.0 9 16 0 100
+ 0.341824 0 1 tcp 1040 ------- 2 0.0 3.0 10 17 0 100
- 0.342656 0 1 tcp 1040 ------- 2 0.0 3.0 10 17 0 100
- 0.343656 1 2 tcp 1040 ------- 2 0.0 3.0 8 15 0 100
r 0.343656 0 1 tcp 1040 ------- 2 0.0 3.0 9 16 0 100
+ 0.343656 1 2 tcp 1040 ------- 2 0.0 3.0 9 16 0 100
r 0.344488 0 1 tcp 1040 ------- 2 0.0 3.0 10 17 0 100
+ 0.344488 1 2 tcp 1040 ------- 2 0.0 3.0 10 17 0 100
r 0.349112 2 1 ack 40 ------- 2 3.0 0.0 5 12 0 999
+ 0.349112 1 0 ack 40 ------- 2 3.0 0.0 5 12 0 999
- 0.349112 1 0 ack 40 ------- 2 3.0 0.0 5 12 0 999
r 0.350144 1 0 ack 40 ------- 2 3.0 0.0 5 12 0 999
+ 0.350144 0 1 tcp 1040 ------- 2 0.0 3.0 11 18 0 100
- 0.350144 0 1 tcp 1040 ------- 2 0.0 3.0 11 18 0 100
+ 0.350144 0 1 tcp 1040 ------- 2 0.0 3.0 12 19 0 100
- 0.350976 0 1 tcp 1040 ------- 2 0.0 3.0 12 19 0 100
- 0.351976 1 2 tcp 1040 ------- 2 0.0 3.0 9 16 0 100
r 0.351976 0 1 tcp 1040 ------- 2 0.0 3.0 11 18 0 100
+ 0.351976 1 2 tcp 1040 ------- 2 0.0 3.0 11 18 0 100
r 0.352808 0 1 tcp 1040 ------- 2 0.0 3.0 12 19 0 100
+ 0.352808 1 2 tcp 1040 ------- 2 0.0 3.0 12 19 0 100
r 0.357432 2 1 ack 40 ------- 2 3.0 0.0 6 13 0 999
+ 0.357432 1 0 ack 40 ------- 2 3.0 0.0 6 13 0 999
- 0.357432 1 0 ack 40 ------- 2 3.0 0.0 6 13 0 999
r 0.358464 1 0 ack 40 ------- 2 3.0 0.0 6 13 0 999
+ 0.358464 0 1 tcp 1040 ------- 2 0.0 3.0 13 20 0 100
- 0.358464 0 1 tcp 1040 ------- 2 0.0 3.0 13 20 0 100
+ 0.358464 0 1 tcp 1040 ------- 2 0.0 3.0 14 21 0 100
- 0.359296 0 1 tcp 1040 ------- 2 0.0 3.0 14 21 0 100
- 0.360296 1 2 tcp 1040 ------- 2 0.0 3.0 10 17 0 100
r 0.360296 0 1 tcp 1040 ------- 2 0.0 3.0 13 20 0 100
+ 0.360296 1 2 tcp 1040 ------- 2 0.0 3.0 13 20 0 100
r 0.361128 0 1 tcp 1040 ------- 2 0.0 3.0 14 21 0 100
+ 0.361128 1 2 tcp 1040 ------- 2 0.0 3.0 14 21 0 100
- 0.368616 1 2 tcp 1040 ------- 2 0.0 3.0 11 18 0 100
- 0.376936 1 2 tcp 1040 ------- 2 0.0 3.0 12 19 0 100
- 0.385256 1 2 tcp 1040 ------- 2 0.0 3.0 13 20 0 100
- 0.393576 1 2 tcp 1040 ------- 2 0.0 3.0 14 21 0 100
r 0.393656 1 2 tcp 1040 ------- 2 0.0 3.0 7 14 0 100
+ 0.393656 2 3 tcp 1040 ------- 2 0.0 3.0 7 14 0 100
- 0.393656 2 3 tcp 1040 ------- 2 0.0 3.0 7 14 0 100
r 0.395488 2 3 tcp 1040 ------- 2 0.0 3.0 7 14 0 100
+ 0.395488 3 2 ack 40 ------- 2 3.0 0.0 7 22 0 999
- 0.395488 3 2 ack 40 ------- 2 3.0 0.0 7 22 0 999
r 0.39652 3 2 ack 40 ------- 2 3.0 0.0 7 22 0 999
+ 0.39652 2 1 ack 40 ------- 2 3.0 0.0 7 22 0 999
- 0.39652 2 1 ack 40 ------- 2 3.0 0.0 7 22 0 999
r 0.401976 1 2 tcp 1040 ------- 2 0.0 3.0 8 15 0 100
+ 0.401976 2 3 tcp 1040 ------- 2 0.0 3.0 8 15 0 100
- 0.401976 2 3 tcp 1040 ------- 2 0.0 3.0 8 15 0 100
r 0.403808 2 3 tcp 1040 ------- 2 0.0 3.0 8 15 0 100
+ 0.403808 3 2 ack 40 ------- 2 3.0 0.0 8 23 0 999
- 0.403808 3 2 ack 40 ------- 2 3.0 0.0 8 23 0 999
r 0.40484 3 2 ack 40 ------- 2 3.0 0.0 8 23 0 999
+ 0.40484 2 1 ack 40 ------- 2 3.0 0.0 8 23 0 999
- 0.40484 2 1 ack 40 ------- 2 3.0 0.0 8 23 0 999
r 0.410296 1 2 tcp 1040 ------- 2 0.0 3.0 9 16 0 100
+ 0.410296 2 3 tcp 1040 ------- 2 0.0 3.0 9 16 0 100
- 0.410296 2 3 tcp 1040 ------- 2 0.0 3.0 9 16 0 100
r 0.412128 2 3 tcp 1040 ------- 2 0.0 3.0 9 16 0 100
+ 0.412128 3 2 ack 40 ------- 2 3.0 0.0 9 24 0 999
- 0.412128 3 2 ack 40 ------- 2 3.0 0.0 9 24 0 999
r 0.41316 3 2 ack 40 ------- 2 3.0 0.0 9 24 0 999
+ 0.41316 2 1 ack 40 ------- 2 3.0 0.0 9 24 0 999
- 0.41316 2 1 ack 40 ------- 2 3.0 0.0 9 24 0 999
r 0.418616 1 2 tcp 1040 ------- 2 0.0 3.0 10 17 0 100
+ 0.418616 2 3 tcp 1040 ------- 2 0.0 3.0 10 17 0 100
- 0.418616 2 3 tcp 1040 ------- 2 0.0 3.0 10 17 0 100
r 0.420448 2 3 tcp 1040 ------- 2 0.0 3.0 10 17 0 100
+ 0.420448 3 2 ack 40 ------- 2 3.0 0.0 10 25 0 999
- 0.420448 3 2 ack 40 ------- 2 3.0 0.0 10 25 0 999
r 0.42148 3 2 ack 40 ------- 2 3.0 0.0 10 25 0 999
+ 0.42148 2 1 ack 40 ------- 2 3.0 0.0 10 25 0 999
- 0.42148 2 1 ack 40 ------- 2 3.0 0.0 10 25 0 999
r 0.426936 1 2 tcp 1040 ------- 2 0.0 3.0 11 18 0 100
+ 0.426936 2 3 tcp 1040 ------- 2 0.0 3.0 11 18 0 100
- 0.426936 2 3 tcp 1040 ------- 2 0.0 3.0 11 18 0 100
r 0.428768 2 3 tcp 1040 ------- 2 0.0 3.0 11 18 0 100
+ 0.428768 3 2 ack 40 ------- 2 3.0 0.0 11 26 0 999
- 0.428768 3 2 ack 40 ------- 2 3.0 0.0 11 26 0 999
r 0.4298 3 2 ack 40 ------- 2 3.0 0.0 11 26 0 999
+ 0.4298 2 1 ack 40 ------- 2 3.0 0.0 11 26 0 999
- 0.4298 2 1 ack 40 ------- 2 3.0 0.0 11 26 0 999
r 0.435256 1 2 tcp 1040 ------- 2 0.0 3.0 12 19 0 100
+ 0.435256 2 3 tcp 1040 ------- 2 0.0 3.0 12 19 0 100
- 0.435256 2 3 tcp 1040 ------- 2 0.0 3.0 12 19 0 100
r 0.437088 2 3 tcp 1040 ------- 2 0.0 3.0 12 19 0 100
+ 0.437088 3 2 ack 40 ------- 2 3.0 0.0 12 27 0 999
- 0.437088 3 2 ack 40 ------- 2 3.0 0.0 12 27 0 999
r 0.43812 3 2 ack 40 ------- 2 3.0 0.0 12 27 0 999
+ 0.43812 2 1 ack 40 ------- 2 3.0 0.0 12 27 0 999
- 0.43812 2 1 ack 40 ------- 2 3.0 0.0 12 27 0 999
r 0.443576 1 2 tcp 1040 ------- 2 0.0 3.0 13 20 0 100
+ 0.443576 2 3 tcp 1040 ------- 2 0.0 3.0 13 20 0 100
- 0.443576 2 3 tcp 1040 ------- 2 0.0 3.0 13 20 0 100
r 0.445408 2 3 tcp 1040 ------- 2 0.0 3.0 13 20 0 100
+ 0.445408 3 2 ack 40 ------- 2 3.0 0.0 13 28 0 999
- 0.445408 3 2 ack 40 ------- 2 3.0 0.0 13 28 0 999
r 0.44644 3 2 ack 40 ------- 2 3.0 0.0 13 28 0 999
+ 0.44644 2 1 ack 40 ------- 2 3.0 0.0 13 28 0 999
- 0.44644 2 1 ack 40 ------- 2 3.0 0.0 13 28 0 999
r 0.44684 2 1 ack 40 ------- 2 3.0 0.0 7 22 0 999
+ 0.44684 1 0 ack 40 ------- 2 3.0 0.0 7 22 0 999
- 0.44684 1 0 ack 40 ------- 2 3.0 0.0 7 22 0 999
r 0.447872 1 0 ack 40 ------- 2 3.0 0.0 7 22 0 999
+ 0.447872 0 1 tcp 1040 ------- 2 0.0 3.0 15 29 0 100
- 0.447872 0 1 tcp 1040 ------- 2 0.0 3.0 15 29 0 100
+ 0.447872 0 1 tcp 1040 ------- 2 0.0 3.0 16 30 0 100
- 0.448704 0 1 tcp 1040 ------- 2 0.0 3.0 16 30 0 100
r 0.449704 0 1 tcp 1040 ------- 2 0.0 3.0 15 29 0 100
+ 0.449704 1 2 tcp 1040 ------- 2 0.0 3.0 15 29 0 100
- 0.449704 1 2 tcp 1040 ------- 2 0.0 3.0 15 29 0 100
r 0.450536 0 1 tcp 1040 ------- 2 0.0 3.0 16 30 0 100
+ 0.450536 1 2 tcp 1040 ------- 2 0.0 3.0 16 30 0 100
r 0.451896 1 2 tcp 1040 ------- 2 0.0 3.0 14 21 0 100
+ 0.451896 2 3 tcp 1040 ------- 2 0.0 3.0 14 21 0 100
- 0.451896 2 3 tcp 1040 ------- 2 0.0 3.0 14 21 0 100
r 0.453728 2 3 tcp 1040 ------- 2 0.0 3.0 14 21 0 100
+ 0.453728 3 2 ack 40 ------- 2 3.0 0.0 14 31 0 999
- 0.453728 3 2 ack 40 ------- 2 3.0 0.0 14 31 0 999
r 0.45476 3 2 ack 40 ------- 2 3.0 0.0 14 31 0 999
+ 0.45476 2 1 ack 40 ------- 2 3.0 0.0 14 31 0 999
- 0.45476 2 1 ack 40 ------- 2 3.0 0.0 14 31 0 999
r 0.45516 2 1 ack 40 ------- 2 3.0 0.0 8 23 0 999
+ 0.45516 1 0 ack 40 ------- 2 3.0 0.0 8 23 0 999
- 0.45516 1 0 ack 40 ------- 2 3.0 0.0 8 23 0 999
r 0.456192 1 0 ack 40 ------- 2 3.0 0.0 8 23 0 999
+ 0.456192 0 1 tcp 1040 ------- 2 0.0 3.0 17 32 0 100
- 0.456192 0 1 tcp 1040 ------- 2 0.0 3.0 17 32 0 100
+ 0.456192 0 1 tcp 1040 ------- 2 0.0 3.0 18 33 0 100
- 0.457024 0 1 tcp 1040 ------- 2 0.0 3.0 18 33 0 100
- 0.458024 1 2 tcp 1040 ------- 2 0.0 3.0 16 30 0 100
r 0.458024 0 1 tcp 1040 ------- 2 0.0 3.0 17 32 0 100
+ 0.458024 1 2 tcp 1040 ------- 2 0.0 3.0 17 32 0 100
r 0.458856 0 1 tcp 1040 ------- 2 0.0 3.0 18 33 0 100
+ 0.458856 1 2 tcp 1040 ------- 2 0.0 3.0 18 33 0 100
r 0.46348 2 1 ack 40 ------- 2 3.0 0.0 9 24 0 999
+ 0.46348 1 0 ack 40 ------- 2 3.0 0.0 9 24 0 999
- 0.46348 1 0 ack 40 ------- 2 3.0 0.0 9 24 0 999
r 0.464512 1 0 ack 40 ------- 2 3.0 0.0 9 24 0 999
+ 0.464512 0 1 tcp 1040 ------- 2 0.0 3.0 19 34 0 100
- 0.464512 0 1 tcp 1040 ------- 2 0.0 3.0 19 34 0 100
+ 0.464512 0 1 tcp 1040 ------- 2 0.0 3.0 20 35 0 100
- 0.465344 0 1 tcp 1040 ------- 2 0.0 3.0 20 35 0 100
- 0.466344 1 2 tcp 1040 ------- 2 0.0 3.0 17 32 0 100
r 0.466344 0 1 tcp 1040 ------- 2 0.0 3.0 19 34 0 100
+ 0.466344 1 2 tcp 1040 ------- 2 0.0 3.0 19 34 0 100
r 0.467176 0 1 tcp 1040 ------- 2 0.0 3.0 20 35 0 100
+ 0.467176 1 2 tcp 1040 ------- 2 0.0 3.0 20 35 0 100
r 0.4718 2 1 ack 40 ------- 2 3.0 0.0 10 25 0 999
+ 0.4718 1 0 ack 40 ------- 2 3.0 0.0 10 25 0 999
- 0.4718 1 0 ack 40 ------- 2 3.0 0.0 10 25 0 999
r 0.472832 1 0 ack 40 ------- 2 3.0 0.0 10 25 0 999
+ 0.472832 0 1 tcp 1040 ------- 2 0.0 3.0 21 36 0 100
- 0.472832 0 1 tcp 1040 ------- 2 0.0 3.0 21 36 0 100
+ 0.472832 0 1 tcp 1040 ------- 2 0.0 3.0 22 37 0 100
- 0.473664 0 1 tcp 1040 ------- 2 0.0 3.0 22 37 0 100
- 0.474664 1 2 tcp 1040 ------- 2 0.0 3.0 18 33 0 100
r 0.474664 0 1 tcp 1040 ------- 2 0.0 3.0 21 36 0 100
+ 0.474664 1 2 tcp 1040 ------- 2 0.0 3.0 21 36 0 100
r 0.475496 0 1 tcp 1040 ------- 2 0.0 3.0 22 37 0 100
+ 0.475496 1 2 tcp 1040 ------- 2 0.0 3.0 22 37 0 100
r 0.48012 2 1 ack 40 ------- 2 3.0 0.0 11 26 0 999
+ 0.48012 1 0 ack 40 ------- 2 3.0 0.0 11 26 0 999
- 0.48012 1 0 ack 40 ------- 2 3.0 0.0 11 26 0 999
r 0.481152 1 0 ack 40 ------- 2 3.0 0.0 11 26 0 999
+ 0.481152 0 1 tcp 1040 ------- 2 0.0 3.0 23 38 0 100
- 0.481152 0 1 tcp 1040 ------- 2 0.0 3.0 23 38 0 100
+ 0.481152 0 1 tcp 1040 ------- 2 0.0 3.0 24 39 0 100
- 0.481984 0 1 tcp 1040 ------- 2 0.0 3.0 24 39 0 100
- 0.482984 1 2 tcp 1040 ------- 2 0.0 3.0 19 34 0 100
r 0.482984 0 1 tcp 1040 ------- 2 0.0 3.0 23 38 0 100
+ 0.482984 1 2 tcp 1040 ------- 2 0.0 3.0 23 38 0 100
r 0.483816 0 1 tcp 1040 ------- 2 0.0 3.0 24 39 0 100
+ 0.483816 1 2 tcp 1040 ------- 2 0.0 3.0 24 39 0 100
r 0.48844 2 1 ack 40 ------- 2 3.0 0.0 12 27 0 999
+ 0.48844 1 0 ack 40 ------- 2 3.0 0.0 12 27 0 999
- 0.48844 1 0 ack 40 ------- 2 3.0 0.0 12 27 0 999
r 0.489472 1 0 ack 40 ------- 2 3.0 0.0 12 27 0 999
+ 0.489472 0 1 tcp 1040 ------- 2 0.0 3.0 25 40 0 100
- 0.489472 0 1 tcp 1040 ------- 2 0.0 3.0 25 40 0 100
+ 0.489472 0 1 tcp 1040 ------- 2 0.0 3.0 26 41 0 100
- 0.490304 0 1 tcp 1040 ------- 2 0.0 3.0 26 41 0 100
- 0.491304 1 2 tcp 1040 ------- 2 0.0 3.0 20 35 0 100
r 0.491304 0 1 tcp 1040 ------- 2 0.0 3.0 25 40 0 100
+ 0.491304 1 2 tcp 1040 ------- 2 0.0 3.0 25 40 0 100
r 0.492136 0 1 tcp 1040 ------- 2 0.0 3.0 26 41 0 100
+ 0.492136 1 2 tcp 1040 ------- 2 0.0 3.0 26 41 0 100
r 0.49676 2 1 ack 40 ------- 2 3.0 0.0 13 28 0 999
+ 0.49676 1 0 ack 40 ------- 2 3.0 0.0 13 28 0 999
- 0.49676 1 0 ack 40 ------- 2 3.0 0.0 13 28 0 999
r 0.497792 1 0 ack 40 ------- 2 3.0 0.0 13 28 0 999
+ 0.497792 0 1 tcp 1040 ------- 2 0.0 3.0 27 42 0 100
- 0.497792 0 1 tcp 1040 ------- 2 0.0 3.0 27 42 0 100
+ 0.497792 0 1 tcp 1040 ------- 2 0.0 3.0 28 43 0 100
- 0.498624 0 1 tcp 1040 ------- 2 0.0 3.0 28 43 0 100
- 0.499624 1 2 tcp 1040 ------- 2 0.0 3.0 21 36 0 100
r 0.499624 0 1 tcp 1040 ------- 2 0.0 3.0 27 42 0 100
+ 0.499624 1 2 tcp 1040 ------- 2 0.0 3.0 27 42 0 100
r 0.500456 0 1 tcp 1040 ------- 2 0.0 3.0 28 43 0 100
+ 0.500456 1 2 tcp 1040 ------- 2 0.0 3.0 28 43 0 100
r 0.50508 2 1 ack 40 ------- 2 3.0 0.0 14 31 0 999
+ 0.50508 1 0 ack 40 ------- 2 3.0 0.0 14 31 0 999
- 0.50508 1 0 ack 40 ------- 2 3.0 0.0 14 31 0 999
r 0.506112 1 0 ack 40 ------- 2 3.0 0.0 14 31 0 999
+ 0.506112 0 1 tcp 1040 ------- 2 0.0 3.0 29 44 0 100
- 0.506112 0 1 tcp 1040 ------- 2 0.0 3.0 29 44 0 100
+ 0.506112 0 1 tcp 1040 ------- 2 0.0 3.0 30 45 0 100
- 0.506944 0 1 tcp 1040 ------- 2 0.0 3.0 30 45 0 100
- 0.507944 1 2 tcp 1040 ------- 2 0.0 3.0 22 37 0 100
r 0.507944 0 1 tcp 1040 ------- 2 0.0 3.0 29 44 0 100
+ 0.507944 1 2 tcp 1040 ------- 2 0.0 3.0 29 44 0 100
r 0.508024 1 2 tcp 1040 ------- 2 0.0 3.0 15 29 0 100
+ 0.508024 2 3 tcp 1040 ------- 2 0.0 3.0 15 29 0 100
- 0.508024 2 3 tcp 1040 ------- 2 0.0 3.0 15 29 0 100
r 0.508776 0 1 tcp 1040 ------- 2 0.0 3.0 30 45 0 100
+ 0.508776 1 2 tcp 1040 ------- 2 0.0 3.0 30 45 0 100
r 0.509856 2 3 tcp 1040 ------- 2 0.0 3.0 15 29 0 100
+ 0.509856 3 2 ack 40 ------- 2 3.0 0.0 15 46 0 999
- 0.509856 3 2 ack 40 ------- 2 3.0 0.0 15 46 0 999
r 0.510888 3 2 ack 40 ------- 2 3.0 0.0 15 46 0 999
+ 0.510888 2 1 ack 40 ------- 2 3.0 0.0 15 46 0 999
- 0.510888 2 1 ack 40 ------- 2 3.0 0.0 15 46 0 999
- 0.516264 1 2 tcp 1040 ------- 2 0.0 3.0 23 38 0 100
r 0.516344 1 2 tcp 1040 ------- 2 0.0 3.0 16 30 0 100
+ 0.516344 2 3 tcp 1040 ------- 2 0.0 3.0 16 30 0 100
- 0.516344 2 3 tcp 1040 ------- 2 0.0 3.0 16 30 0 100
r 0.518176 2 3 tcp 1040 ------- 2 0.0 3.0 16 30 0 100
+ 0.518176 3 2 ack 40 ------- 2 3.0 0.0 16 47 0 999
- 0.518176 3 2 ack 40 ------- 2 3.0 0.0 16 47 0 999
r 0.519208 3 2 ack 40 ------- 2 3.0 0.0 16 47 0 999
+ 0.519208 2 1 ack 40 ------- 2 3.0 0.0 16 47 0 999
- 0.519208 2 1 ack 40 ------- 2 3.0 0.0 16 47 0 999
- 0.524584 1 2 tcp 1040 ------- 2 0.0 3.0 24 39 0 100
r 0.524664 1 2 tcp 1040 ------- 2 0.0 3.0 17 32 0 100
+ 0.524664 2 3 tcp 1040 ------- 2 0.0 3.0 17 32 0 100
- 0.524664 2 3 tcp 1040 ------- 2 0.0 3.0 17 32 0 100
r 0.526496 2 3 tcp 1040 ------- 2 0.0 3.0 17 32 0 100
+ 0.526496 3 2 ack 40 ------- 2 3.0 0.0 17 48 0 999
- 0.526496 3 2 ack 40 ------- 2 3.0 0.0 17 48 0 999
r 0.527528 3 2 ack 40 ------- 2 3.0 0.0 17 48 0 999
+ 0.527528 2 1 ack 40 ------- 2 3.0 0.0 17 48 0 999
- 0.527528 2 1 ack 40 ------- 2 3.0 0.0 17 48 0 999
- 0.532904 1 2 tcp 1040 ------- 2 0.0 3.0 25 40 0 100
r 0.532984 1 2 tcp 1040 ------- 2 0.0 3.0 18 33 0 100
+ 0.532984 2 3 tcp 1040 ------- 2 0.0 3.0 18 33 0 100
- 0.532984 2 3 tcp 1040 ------- 2 0.0 3.0 18 33 0 100
r 0.534816 2 3 tcp 1040 ------- 2 0.0 3.0 18 33 0 100
+ 0.534816 3 2 ack 40 ------- 2 3.0 0.0 18 49 0 999
- 0.534816 3 2 ack 40 ------- 2 3.0 0.0 18 49 0 999
r 0.535848 3 2 ack 40 ------- 2 3.0 0.0 18 49 0 999
+ 0.535848 2 1 ack 40 ------- 2 3.0 0.0 18 49 0 999
- 0.535848 2 1 ack 40 ------- 2 3.0 0.0 18 49 0 999
- 0.541224 1 2 tcp 1040 ------- 2 0.0 3.0 26 41 0 100
r 0.541304 1 2 tcp 1040 ------- 2 0.0 3.0 19 34 0 100
+ 0.541304 2 3 tcp 1040 ------- 2 0.0 3.0 19 34 0 100
- 0.541304 2 3 tcp 1040 ------- 2 0.0 3.0 19 34 0 100
r 0.543136 2 3 tcp 1040 ------- 2 0.0 3.0 19 34 0 100
+ 0.543136 3 2 ack 40 ------- 2 3.0 0.0 19 50 0 999
- 0.543136 3 2 ack 40 ------- 2 3.0 0.0 19 50 0 999
r 0.544168 3 2 ack 40 ------- 2 3.0 0.0 19 50 0 999
+ 0.544168 2 1 ack 40 ------- 2 3.0 0.0 19 50 0 999
- 0.544168 2 1 ack 40 ------- 2 3.0 0.0 19 50 0 999
- 0.549544 1 2 tcp 1040 ------- 2 0.0 3.0 27 42 0 100
r 0.549624 1 2 tcp 1040 ------- 2 0.0 3.0 20 35 0 100
+ 0.549624 2 3 tcp 1040 ------- 2 0.0 3.0 20 35 0 100
- 0.549624 2 3 tcp 1040 ------- 2 0.0 3.0 20 35 0 100
r 0.551456 2 3 tcp 1040 ------- 2 0.0 3.0 20 35 0 100
+ 0.551456 3 2 ack 40 ------- 2 3.0 0.0 20 51 0 999
- 0.551456 3 2 ack 40 ------- 2 3.0 0.0 20 51 0 999
r 0.552488 3 2 ack 40 ------- 2 3.0 0.0 20 51 0 999
+ 0.552488 2 1 ack 40 ------- 2 3.0 0.0 20 51 0 999
- 0.552488 2 1 ack 40 ------- 2 3.0 0.0 20 51 0 999
- 0.557864 1 2 tcp 1040 ------- 2 0.0 3.0 28 43 0 100
r 0.557944 1 2 tcp 1040 ------- 2 0.0 3.0 21 36 0 100
+ 0.557944 2 3 tcp 1040 ------- 2 0.0 3.0 21 36 0 100
- 0.557944 2 3 tcp 1040 ------- 2 0.0 3.0 21 36 0 100
r 0.559776 2 3 tcp 1040 ------- 2 0.0 3.0 21 36 0 100
+ 0.559776 3 2 ack 40 ------- 2 3.0 0.0 21 52 0 999
- 0.559776 3 2 ack 40 ------- 2 3.0 0.0 21 52 0 999
r 0.560808 3 2 ack 40 ------- 2 3.0 0.0 21 52 0 999
+ 0.560808 2 1 ack 40 ------- 2 3.0 0.0 21 52 0 999
- 0.560808 2 1 ack 40 ------- 2 3.0 0.0 21 52 0 999
r 0.561208 2 1 ack 40 ------- 2 3.0 0.0 15 46 0 999
+ 0.561208 1 0 ack 40 ------- 2 3.0 0.0 15 46 0 999
- 0.561208 1 0 ack 40 ------- 2 3.0 0.0 15 46 0 999
r 0.56224 1 0 ack 40 ------- 2 3.0 0.0 15 46 0 999
+ 0.56224 0 1 tcp 1040 ------- 2 0.0 3.0 31 53 0 100
- 0.56224 0 1 tcp 1040 ------- 2 0.0 3.0 31 53 0 100
+ 0.56224 0 1 tcp 1040 ------- 2 0.0 3.0 32 54 0 100
- 0.563072 0 1 tcp 1040 ------- 2 0.0 3.0 32 54 0 100
r 0.564072 0 1 tcp 1040 ------- 2 0.0 3.0 31 53 0 100
+ 0.564072 1 2 tcp 1040 ------- 2 0.0 3.0 31 53 0 100
r 0.564904 0 1 tcp 1040 ------- 2 0.0 3.0 32 54 0 100
+ 0.564904 1 2 tcp 1040 ------- 2 0.0 3.0 32 54 0 100
- 0.566184 1 2 tcp 1040 ------- 2 0.0 3.0 29 44 0 100
r 0.566264 1 2 tcp 1040 ------- 2 0.0 3.0 22 37 0 100
+ 0.566264 2 3 tcp 1040 ------- 2 0.0 3.0 22 37 0 100
- 0.566264 2 3 tcp 1040 ------- 2 0.0 3.0 22 37 0 100
r 0.568096 2 3 tcp 1040 ------- 2 0.0 3.0 22 37 0 100
+ 0.568096 3 2 ack 40 ------- 2 3.0 0.0 22 55 0 999
- 0.568096 3 2 ack 40 ------- 2 3.0 0.0 22 55 0 999
r 0.569128 3 2 ack 40 ------- 2 3.0 0.0 22 55 0 999
+ 0.569128 2 1 ack 40 ------- 2 3.0 0.0 22 55 0 999
- 0.569128 2 1 ack 40 ------- 2 3.0 0.0 22 55 0 999
r 0.569528 2 1 ack 40 ------- 2 3.0 0.0 16 47 0 999
+ 0.569528 1 0 ack 40 ------- 2 3.0 0.0 16 47 0 999
- 0.569528 1 0 ack 40 ------- 2 3.0 0.0 16 47 0 999
r 0.57056 1 0 ack 40 ------- 2 3.0 0.0 16 47 0 999
+ 0.57056 0 1 tcp 1040 ------- 2 0.0 3.0 33 56 0 100
- 0.57056 0 1 tcp 1040 ------- 2 0.0 3.0 33 56 0 100
+ 0.57056 0 1 tcp 1040 ------- 2 0.0 3.0 34 57 0 100
- 0.571392 0 1 tcp 1040 ------- 2 0.0 3.0 34 57 0 100
r 0.572392 0 1 tcp 1040 ------- 2 0.0 3.0 33 56 0 100
+ 0.572392 1 2 tcp 1040 ------- 2 0.0 3.0 33 56 0 100
r 0.573224 0 1 tcp 1040 ------- 2 0.0 3.0 34 57 0 100
+ 0.573224 1 2 tcp 1040 ------- 2 0.0 3.0 34 57 0 100
- 0.574504 1 2 tcp 1040 ------- 2 0.0 3.0 30 45 0 100
r 0.574584 1 2 tcp 1040 ------- 2 0.0 3.0 23 38 0 100
+ 0.574584 2 3 tcp 1040 ------- 2 0.0 3.0 23 38 0 100
- 0.574584 2 3 tcp 1040 ------- 2 0.0 3.0 23 38 0 100
r 0.576416 2 3 tcp 1040 ------- 2 0.0 3.0 23 38 0 100
+ 0.576416 3 2 ack 40 ------- 2 3.0 0.0 23 58 0 999
- 0.576416 3 2 ack 40 ------- 2 3.0 0.0 23 58 0 999
r 0.577448 3 2 ack 40 ------- 2 3.0 0.0 23 58 0 999
+ 0.577448 2 1 ack 40 ------- 2 3.0 0.0 23 58 0 999
- 0.577448 2 1 ack 40 ------- 2 3.0 0.0 23 58 0 999
r 0.577848 2 1 ack 40 ------- 2 3.0 0.0 17 48 0 999
+ 0.577848 1 0 ack 40 ------- 2 3.0 0.0 17 48 0 999
- 0.577848 1 0 ack 40 ------- 2 3.0 0.0 17 48 0 999
r 0.57888 1 0 ack 40 ------- 2 3.0 0.0 17 48 0 999
+ 0.57888 0 1 tcp 1040 ------- 2 0.0 3.0 35 59 0 100
- 0.57888 0 1 tcp 1040 ------- 2 0.0 3.0 35 59 0 100
+ 0.57888 0 1 tcp 1040 ------- 2 0.0 3.0 36 60 0 100
- 0.579712 0 1 tcp 1040 ------- 2 0.0 3.0 36 60 0 100
r 0.580712 0 1 tcp 1040 ------- 2 0.0 3.0 35 59 0 100
+ 0.580712 1 2 tcp 1040 ------- 2 0.0 3.0 35 59 0 100
r 0.581544 0 1 tcp 1040 ------- 2 0.0 3.0 36 60 0 100
+ 0.581544 1 2 tcp 1040 ------- 2 0.0 3.0 36 60 0 100
- 0.582824 1 2 tcp 1040 ------- 2 0.0 3.0 31 53 0 100
r 0.582904 1 2 tcp 1040 ------- 2 0.0 3.0 24 39 0 100
+ 0.582904 2 3 tcp 1040 ------- 2 0.0 3.0 24 39 0 100
- 0.582904 2 3 tcp 1040 ------- 2 0.0 3.0 24 39 0 100
r 0.584736 2 3 tcp 1040 ------- 2 0.0 3.0 24 39 0 100
+ 0.584736 3 2 ack 40 ------- 2 3.0 0.0 24 61 0 999
- 0.584736 3 2 ack 40 ------- 2 3.0 0.0 24 61 0 999
r 0.585768 3 2 ack 40 ------- 2 3.0 0.0 24 61 0 999
+ 0.585768 2 1 ack 40 ------- 2 3.0 0.0 24 61 0 999
- 0.585768 2 1 ack 40 ------- 2 3.0 0.0 24 61 0 999
r 0.586168 2 1 ack 40 ------- 2 3.0 0.0 18 49 0 999
+ 0.586168 1 0 ack 40 ------- 2 3.0 0.0 18 49 0 999
- 0.586168 1 0 ack 40 ------- 2 3.0 0.0 18 49 0 999
r 0.5872 1 0 ack 40 ------- 2 3.0 0.0 18 49 0 999
+ 0.5872 0 1 tcp 1040 ------- 2 0.0 3.0 37 62 0 100
- 0.5872 0 1 tcp 1040 ------- 2 0.0 3.0 37 62 0 100
+ 0.5872 0 1 tcp 1040 ------- 2 0.0 3.0 38 63 0 100
- 0.588032 0 1 tcp 1040 ------- 2 0.0 3.0 38 63 0 100
r 0.589032 0 1 tcp 1040 ------- 2 0.0 3.0 37 62 0 100
+ 0.589032 1 2 tcp 1040 ------- 2 0.0 3.0 37 62 0 100
r 0.589864 0 1 tcp 1040 ------- 2 0.0 3.0 38 63 0 100
+ 0.589864 1 2 tcp 1040 ------- 2 0.0 3.0 38 63 0 100
- 0.591144 1 2 tcp 1040 ------- 2 0.0 3.0 32 54 0 100
r 0.591224 1 2 tcp 1040 ------- 2 0.0 3.0 25 40 0 100
+ 0.591224 2 3 tcp 1040 ------- 2 0.0 3.0 25 40 0 100
- 0.591224 2 3 tcp 1040 ------- 2 0.0 3.0 25 40 0 100
r 0.593056 2 3 tcp 1040 ------- 2 0.0 3.0 25 40 0 100
+ 0.593056 3 2 ack 40 ------- 2 3.0 0.0 25 64 0 999
- 0.593056 3 2 ack 40 ------- 2 3.0 0.0 25 64 0 999
r 0.594088 3 2 ack 40 ------- 2 3.0 0.0 25 64 0 999
+ 0.594088 2 1 ack 40 ------- 2 3.0 0.0 25 64 0 999
- 0.594088 2 1 ack 40 ------- 2 3.0 0.0 25 64 0 999
r 0.594488 2 1 ack 40 ------- 2 3.0 0.0 19 50 0 999
+ 0.594488 1 0 ack 40 ------- 2 3.0 0.0 19 50 0 999
- 0.594488 1 0 ack 40 ------- 2 3.0 0.0 19 50 0 999
r 0.59552 1 0 ack 40 ------- 2 3.0 0.0 19 50 0 999
+ 0.59552 0 1 tcp 1040 ------- 2 0.0 3.0 39 65 0 100
- 0.59552 0 1 tcp 1040 ------- 2 0.0 3.0 39 65 0 100
r 0.597352 0 1 tcp 1040 ------- 2 0.0 3.0 39 65 0 100
+ 0.597352 1 2 tcp 1040 ------- 2 0.0 3.0 39 65 0 100
- 0.599464 1 2 tcp 1040 ------- 2 0.0 3.0 33 56 0 100
r 0.599544 1 2 tcp 1040 ------- 2 0.0 3.0 26 41 0 100
+ 0.599544 2 3 tcp 1040 ------- 2 0.0 3.0 26 41 0 100
- 0.599544 2 3 tcp 1040 ------- 2 0.0 3.0 26 41 0 100
r 0.601376 2 3 tcp 1040 ------- 2 0.0 3.0 26 41 0 100
+ 0.601376 3 2 ack 40 ------- 2 3.0 0.0 26 66 0 999
- 0.601376 3 2 ack 40 ------- 2 3.0 0.0 26 66 0 999
r 0.602408 3 2 ack 40 ------- 2 3.0 0.0 26 66 0 999
+ 0.602408 2 1 ack 40 ------- 2 3.0 0.0 26 66 0 999
- 0.602408 2 1 ack 40 ------- 2 3.0 0.0 26 66 0 999
r 0.602808 2 1 ack 40 ------- 2 3.0 0.0 20 51 0 999
+ 0.602808 1 0 ack 40 ------- 2 3.0 0.0 20 51 0 999
- 0.602808 1 0 ack 40 ------- 2 3.0 0.0 20 51 0 999
r 0.60384 1 0 ack 40 ------- 2 3.0 0.0 20 51 0 999
+ 0.60384 0 1 tcp 1040 ------- 2 0.0 3.0 40 67 0 100
- 0.60384 0 1 tcp 1040 ------- 2 0.0 3.0 40 67 0 100
r 0.605672 0 1 tcp 1040 ------- 2 0.0 3.0 40 67 0 100
+ 0.605672 1 2 tcp 1040 ------- 2 0.0 3.0 40 67 0 100
- 0.607784 1 2 tcp 1040 ------- 2 0.0 3.0 34 57 0 100
r 0.607864 1 2 tcp 1040 ------- 2 0.0 3.0 27 42 0 100
+ 0.607864 2 3 tcp 1040 ------- 2 0.0 3.0 27 42 0 100
- 0.607864 2 3 tcp 1040 ------- 2 0.0 3.0 27 42 0 100
r 0.609696 2 3 tcp 1040 ------- 2 0.0 3.0 27 42 0 100
+ 0.609696 3 2 ack 40 ------- 2 3.0 0.0 27 68 0 999
- 0.609696 3 2 ack 40 ------- 2 3.0 0.0 27 68 0 999
r 0.610728 3 2 ack 40 ------- 2 3.0 0.0 27 68 0 999
+ 0.610728 2 1 ack 40 ------- 2 3.0 0.0 27 68 0 999
- 0.610728 2 1 ack 40 ------- 2 3.0 0.0 27 68 0 999
r 0.611128 2 1 ack 40 ------- 2 3.0 0.0 21 52 0 999
+ 0.611128 1 0 ack 40 ------- 2 3.0 0.0 21 52 0 999
- 0.611128 1 0 ack 40 ------- 2 3.0 0.0 21 52 0 999
r 0.61216 1 0 ack 40 ------- 2 3.0 0.0 21 52 0 999
+ 0.61216 0 1 tcp 1040 ------- 2 0.0 3.0 41 69 0 100
- 0.61216 0 1 tcp 1040 ------- 2 0.0 3.0 41 69 0 100
r 0.613992 0 1 tcp 1040 ------- 2 0.0 3.0 41 69 0 100
+ 0.613992 1 2 tcp 1040 ------- 2 0.0 3.0 41 69 0 100
- 0.616104 1 2 tcp 1040 ------- 2 0.0 3.0 35 59 0 100
r 0.616184 1 2 tcp 1040 ------- 2 0.0 3.0 28 43 0 100
+ 0.616184 2 3 tcp 1040 ------- 2 0.0 3.0 28 43 0 100
- 0.616184 2 3 tcp 1040 ------- 2 0.0 3.0 28 43 0 100
r 0.618016 2 3 tcp 1040 ------- 2 0.0 3.0 28 43 0 100
+ 0.618016 3 2 ack 40 ------- 2 3.0 0.0 28 70 0 999
- 0.618016 3 2 ack 40 ------- 2 3.0 0.0 28 70 0 999
r 0.619048 3 2 ack 40 ------- 2 3.0 0.0 28 70 0 999
+ 0.619048 2 1 ack 40 ------- 2 3.0 0.0 28 70 0 999
- 0.619048 2 1 ack 40 ------- 2 3.0 0.0 28 70 0 999
r 0.619448 2 1 ack 40 ------- 2 3.0 0.0 22 55 0 999
+ 0.619448 1 0 ack 40 ------- 2 3.0 0.0 22 55 0 999
- 0.619448 1 0 ack 40 ------- 2 3.0 0.0 22 55 0 999
r 0.62048 1 0 ack 40 ------- 2 3.0 0.0 22 55 0 999
+ 0.62048 0 1 tcp 1040 ------- 2 0.0 3.0 42 71 0 100
- 0.62048 0 1 tcp 1040 ------- 2 0.0 3.0 42 71 0 100
r 0.622312 0 1 tcp 1040 ------- 2 0.0 3.0 42 71 0 100
+ 0.622312 1 2 tcp 1040 ------- 2 0.0 3.0 42 71 0 100
- 0.624424 1 2 tcp 1040 ------- 2 0.0 3.0 36 60 0 100
r 0.624504 1 2 tcp 1040 ------- 2 0.0 3.0 29 44 0 100
+ 0.624504 2 3 tcp 1040 ------- 2 0.0 3.0 29 44 0 100
- 0.624504 2 3 tcp 1040 ------- 2 0.0 3.0 29 44 0 100
r 0.626336 2 3 tcp 1040 ------- 2 0.0 3.0 29 44 0 100
+ 0.626336 3 2 ack 40 ------- 2 3.0 0.0 29 72 0 999
- 0.626336 3 2 ack 40 ------- 2 3.0 0.0 29 72 0 999
r 0.627368 3 2 ack 40 ------- 2 3.0 0.0 29 72 0 999
+ 0.627368 2 1 ack 40 ------- 2 3.0 0.0 29 72 0 999
- 0.627368 2 1 ack 40 ------- 2 3.0 0.0 29 72 0 999
r 0.627768 2 1 ack 40 ------- 2 3.0 0.0 23 58 0 999