+ 0.1 0 2 cbr 210 ------- 0 0.0 1.0 0 0 1
- 0.1 0 2 cbr 210 ------- 0 0.0 1.0 0 0 1
+ 0.10375 0 2 cbr 210 ------- 0 0.0 1.0 1 1 2
- 0.10375 0 2 cbr 210 ------- 0 0.0 1.0 1 1 2
r 0.10584 0 2 cbr 210 ------- 0 0.0 1.0 0 0 1
+ 0.10584 2 1 cbr 210 ------- 0 0.0 1.0 0 0 1
- 0.10584 2 1 cbr 210 ------- 0 0.0 1.0 0 0 1
+ 0.1075 0 2 cbr 210 ------- 0 0.0 1.0 2 2 1
- 0.1075 0 2 cbr 210 ------- 0 0.0 1.0 2 2 1
r 0.10959 0 2 cbr 210 ------- 0 0.0 1.0 1 1 2
+ 0.10959 2 1 cbr 210 ------- 0 0.0 1.0 1 1 2
- 0.10959 2 1 cbr 210 ------- 0 0.0 1.0 1 1 2
+ 0.11125 0 2 cbr 210 ------- 0 0.0 1.0 3 3 2
- 0.11125 0 2 cbr 210 ------- 0 0.0 1.0 3 3 2
r 0.11334 0 2 cbr 210 ------- 0 0.0 1.0 2 2 1
+ 0.11334 2 1 cbr 210 ------- 0 0.0 1.0 2 2 1
- 0.11334 2 1 cbr 210 ------- 0 0.0 1.0 2 2 1
+ 0.115 0 2 cbr 210 ------- 0 0.0 1.0 4 4 1
- 0.115 0 2 cbr 210 ------- 0 0.0 1.0 4 4 1
r 0.11696 2 1 cbr 210 ------- 0 0.0 1.0 0 0 1
r 0.11709 0 2 cbr 210 ------- 0 0.0 1.0 3 3 2
+ 0.11709 2 1 cbr 210 ------- 0 0.0 1.0 3 3 2
- 0.11709 2 1 cbr 210 ------- 0 0.0 1.0 3 3 2
+ 0.11875 0 2 cbr 210 ------- 0 0.0 1.0 5 5 2
- 0.11875 0 2 cbr 210 ------- 0 0.0 1.0 5 5 2
r 0.12071 2 1 cbr 210 ------- 0 0.0 1.0 1 1 2
r 0.12084 0 2 cbr 210 ------- 0 0.0 1.0 4 4 1
+ 0.12084 2 1 cbr 210 ------- 0 0.0 1.0 4 4 1
- 0.12084 2 1 cbr 210 ------- 0 0.0 1.0 4 4 1
+ 0.1225 0 2 cbr 210 ------- 0 0.0 1.0 6 6 1
- 0.1225 0 2 cbr 210 ------- 0 0.0 1.0 6 6 1
r 0.12446 2 1 cbr 210 ------- 0 0.0 1.0 2 2 1
r 0.12459 0 2 cbr 210 ------- 0 0.0 1.0 5 5 2
+ 0.12459 2 1 cbr 210 ------- 0 0.0 1.0 5 5 2
- 0.12459 2 1 cbr 210 ------- 0 0.0 1.0 5 5 2
+ 0.12625 0 2 cbr 210 ------- 0 0.0 1.0 7 7 2
- 0.12625 0 2 cbr 210 ------- 0 0.0 1.0 7 7 2
r 0.12821 2 1 cbr 210 ------- 0 0.0 1.0 3 3 2
r 0.12834 0 2 cbr 210 ------- 0 0.0 1.0 6 6 1
+ 0.12834 2 1 cbr 210 ------- 0 0.0 1.0 6 6 1
- 0.12834 2 1 cbr 210 ------- 0 0.0 1.0 6 6 1
+ 0.13 0 2 cbr 210 ------- 0 0.0 1.0 8 8 1
- 0.13 0 2 cbr 210 ------- 0 0.0 1.0 8 8 1
r 0.13196 2 1 cbr 210 ------- 0 0.0 1.0 4 4 1
r 0.13209 0 2 cbr 210 ------- 0 0.0 1.0 7 7 2
+ 0.13209 2 1 cbr 210 ------- 0 0.0 1.0 7 7 2
- 0.13209 2 1 cbr 210 ------- 0 0.0 1.0 7 7 2
+ 0.13375 0 2 cbr 210 ------- 0 0.0 1.0 9 9 2
- 0.13375 0 2 cbr 210 ------- 0 0.0 1.0 9 9 2
r 0.13571 2 1 cbr 210 ------- 0 0.0 1.0 5 5 2
r 0.13584 0 2 cbr 210 ------- 0 0.0 1.0 8 8 1
+ 0.13584 2 1 cbr 210 ------- 0 0.0 1.0 8 8 1
- 0.13584 2 1 cbr 210 ------- 0 0.0 1.0 8 8 1
+ 0.1375 0 2 cbr 210 ------- 0 0.0 1.0 10 10 1
- 0.1375 0 2 cbr 210 ------- 0 0.0 1.0 10 10 1
r 0.13946 2 1 cbr 210 ------- 0 0.0 1.0 6 6 1
r 0.13959 0 2 cbr 210 ------- 0 0.0 1.0 9 9 2
+ 0.13959 2 1 cbr 210 ------- 0 0.0 1.0 9 9 2
- 0.13959 2 1 cbr 210 ------- 0 0.0 1.0 9 9 2
+ 0.14125 0 2 cbr 210 ------- 0 0.0 1.0 11 11 2
- 0.14125 0 2 cbr 210 ------- 0 0.0 1.0 11 11 2
r 0.14321 2 1 cbr 210 ------- 0 0.0 1.0 7 7 2
r 0.14334 0 2 cbr 210 ------- 0 0.0 1.0 10 10 1
+ 0.14334 2 1 cbr 210 ------- 0 0.0 1.0 10 10 1
- 0.14334 2 1 cbr 210 ------- 0 0.0 1.0 10 10 1
+ 0.145 0 2 cbr 210 ------- 0 0.0 1.0 12 12 1
- 0.145 0 2 cbr 210 ------- 0 0.0 1.0 12 12 1
r 0.14696 2 1 cbr 210 ------- 0 0.0 1.0 8 8 1
r 0.14709 0 2 cbr 210 ------- 0 0.0 1.0 11 11 2
+ 0.14709 2 1 cbr 210 ------- 0 0.0 1.0 11 11 2
- 0.14709 2 1 cbr 210 ------- 0 0.0 1.0 11 11 2
+ 0.14875 0 2 cbr 210 ------- 0 0.0 1.0 13 13 2
- 0.14875 0 2 cbr 210 ------- 0 0.0 1.0 13 13 2
r 0.15071 2 1 cbr 210 ------- 0 0.0 1.0 9 9 2
r 0.15084 0 2 cbr 210 ------- 0 0.0 1.0 12 12 1
+ 0.15084 2 1 cbr 210 ------- 0 0.0 1.0 12 12 1
- 0.15084 2 1 cbr 210 ------- 0 0.0 1.0 12 12 1
+ 0.1525 0 2 cbr 210 ------- 0 0.0 1.0 14 14 1
- 0.1525 0 2 cbr 210 ------- 0 0.0 1.0 14 14 1
r 0.15446 2 1 cbr 210 ------- 0 0.0 1.0 10 10 1
r 0.15459 0 2 cbr 210 ------- 0 0.0 1.0 13 13 2
+ 0.15459 2 1 cbr 210 ------- 0 0.0 1.0 13 13 2
- 0.15459 2 1 cbr 210 ------- 0 0.0 1.0 13 13 2
+ 0.15625 0 2 cbr 210 ------- 0 0.0 1.0 15 15 2
- 0.15625 0 2 cbr 210 ------- 0 0.0 1.0 15 15 2
r 0.15821 2 1 cbr 210 ------- 0 0.0 1.0 11 11 2
r 0.15834 0 2 cbr 210 ------- 0 0.0 1.0 14 14 1
+ 0.15834 2 1 cbr 210 ------- 0 0.0 1.0 14 14 1
- 0.15834 2 1 cbr 210 ------- 0 0.0 1.0 14 14 1
+ 0.16 0 2 cbr 210 ------- 0 0.0 1.0 16 16 1
- 0.16 0 2 cbr 210 ------- 0 0.0 1.0 16 16 1
r 0.16196 2 1 cbr 210 ------- 0 0.0 1.0 12 12 1
r 0.16209 0 2 cbr 210 ------- 0 0.0 1.0 15 15 2
+ 0.16209 2 1 cbr 210 ------- 0 0.0 1.0 15 15 2
- 0.16209 2 1 cbr 210 ------- 0 0.0 1.0 15 15 2
+ 0.16375 0 2 cbr 210 ------- 0 0.0 1.0 17 17 2
- 0.16375 0 2 cbr 210 ------- 0 0.0 1.0 17 17 2
r 0.16571 2 1 cbr 210 ------- 0 0.0 1.0 13 13 2
r 0.16584 0 2 cbr 210 ------- 0 0.0 1.0 16 16 1
+ 0.16584 2 1 cbr 210 ------- 0 0.0 1.0 16 16 1
- 0.16584 2 1 cbr 210 ------- 0 0.0 1.0 16 16 1
+ 0.1675 0 2 cbr 210 ------- 0 0.0 1.0 18 18 1
- 0.1675 0 2 cbr 210 ------- 0 0.0 1.0 18 18 1
r 0.16946 2 1 cbr 210 ------- 0 0.0 1.0 14 14 1
r 0.16959 0 2 cbr 210 ------- 0 0.0 1.0 17 17 2
+ 0.16959 2 1 cbr 210 ------- 0 0.0 1.0 17 17 2
- 0.16959 2 1 cbr 210 ------- 0 0.0 1.0 17 17 2
+ 0.17125 0 2 cbr 210 ------- 0 0.0 1.0 19 19 2
- 0.17125 0 2 cbr 210 ------- 0 0.0 1.0 19 19 2
r 0.17321 2 1 cbr 210 ------- 0 0.0 1.0 15 15 2
r 0.17334 0 2 cbr 210 ------- 0 0.0 1.0 18 18 1
+ 0.17334 2 1 cbr 210 ------- 0 0.0 1.0 18 18 1
- 0.17334 2 1 cbr 210 ------- 0 0.0 1.0 18 18 1
+ 0.175 0 2 cbr 210 ------- 0 0.0 1.0 20 20 1
- 0.175 0 2 cbr 210 ------- 0 0.0 1.0 20 20 1
r 0.17696 2 1 cbr 210 ------- 0 0.0 1.0 16 16 1
r 0.17709 0 2 cbr 210 ------- 0 0.0 1.0 19 19 2
+ 0.17709 2 1 cbr 210 ------- 0 0.0 1.0 19 19 2
- 0.17709 2 1 cbr 210 ------- 0 0.0 1.0 19 19 2
+ 0.17875 0 2 cbr 210 ------- 0 0.0 1.0 21 21 2
- 0.17875 0 2 cbr 210 ------- 0 0.0 1.0 21 21 2
r 0.18071 2 1 cbr 210 ------- 0 0.0 1.0 17 17 2
r 0.18084 0 2 cbr 210 ------- 0 0.0 1.0 20 20 1
+ 0.18084 2 1 cbr 210 ------- 0 0.0 1.0 20 20 1
- 0.18084 2 1 cbr 210 ------- 0 0.0 1.0 20 20 1
+ 0.1825 0 2 cbr 210 ------- 0 0.0 1.0 22 22 1
- 0.1825 0 2 cbr 210 ------- 0 0.0 1.0 22 22 1
r 0.18446 2 1 cbr 210 ------- 0 0.0 1.0 18 18 1
r 0.18459 0 2 cbr 210 ------- 0 0.0 1.0 21 21 2
+ 0.18459 2 1 cbr 210 ------- 0 0.0 1.0 21 21 2
- 0.18459 2 1 cbr 210 ------- 0 0.0 1.0 21 21 2
+ 0.18625 0 2 cbr 210 ------- 0 0.0 1.0 23 23 2
- 0.18625 0 2 cbr 210 ------- 0 0.0 1.0 23 23 2
r 0.18821 2 1 cbr 210 ------- 0 0.0 1.0 19 19 2
r 0.18834 0 2 cbr 210 ------- 0 0.0 1.0 22 22 1
+ 0.18834 2 1 cbr 210 ------- 0 0.0 1.0 22 22 1
- 0.18834 2 1 cbr 210 ------- 0 0.0 1.0 22 22 1
+ 0.19 0 2 cbr 210 ------- 0 0.0 1.0 24 24 1
- 0.19 0 2 cbr 210 ------- 0 0.0 1.0 24 24 1
r 0.19196 2 1 cbr 210 ------- 0 0.0 1.0 20 20 1
r 0.19209 0 2 cbr 210 ------- 0 0.0 1.0 23 23 2
+ 0.19209 2 1 cbr 210 ------- 0 0.0 1.0 23 23 2
- 0.19209 2 1 cbr 210 ------- 0 0.0 1.0 23 23 2
+ 0.19375 0 2 cbr 210 ------- 0 0.0 1.0 25 25 2
- 0.19375 0 2 cbr 210 ------- 0 0.0 1.0 25 25 2
r 0.19571 2 1 cbr 210 ------- 0 0.0 1.0 21 21 2
r 0.19584 0 2 cbr 210 ------- 0 0.0 1.0 24 24 1
+ 0.19584 2 1 cbr 210 ------- 0 0.0 1.0 24 24 1
- 0.19584 2 1 cbr 210 ------- 0 0.0 1.0 24 24 1
+ 0.1975 0 2 cbr 210 ------- 0 0.0 1.0 26 26 1
- 0.1975 0 2 cbr 210 ------- 0 0.0 1.0 26 26 1
r 0.19946 2 1 cbr 210 ------- 0 0.0 1.0 22 22 1
r 0.19959 0 2 cbr 210 ------- 0 0.0 1.0 25 25 2
+ 0.19959 2 1 cbr 210 ------- 0 0.0 1.0 25 25 2
- 0.19959 2 1 cbr 210 ------- 0 0.0 1.0 25 25 2
+ 0.20125 0 2 cbr 210 ------- 0 0.0 1.0 27 27 2
- 0.20125 0 2 cbr 210 ------- 0 0.0 1.0 27 27 2
r 0.20321 2 1 cbr 210 ------- 0 0.0 1.0 23 23 2
r 0.20334 0 2 cbr 210 ------- 0 0.0 1.0 26 26 1
+ 0.20334 2 1 cbr 210 ------- 0 0.0 1.0 26 26 1
- 0.20334 2 1 cbr 210 ------- 0 0.0 1.0 26 26 1
+ 0.205 0 2 cbr 210 ------- 0 0.0 1.0 28 28 1
- 0.205 0 2 cbr 210 ------- 0 0.0 1.0 28 28 1
r 0.20696 2 1 cbr 210 ------- 0 0.0 1.0 24 24 1
r 0.20709 0 2 cbr 210 ------- 0 0.0 1.0 27 27 2
+ 0.20709 2 1 cbr 210 ------- 0 0.0 1.0 27 27 2
- 0.20709 2 1 cbr 210 ------- 0 0.0 1.0 27 27 2
+ 0.20875 0 2 cbr 210 ------- 0 0.0 1.0 29 29 2
- 0.20875 0 2 cbr 210 ------- 0 0.0 1.0 29 29 2
r 0.21071 2 1 cbr 210 ------- 0 0.0 1.0 25 25 2
r 0.21084 0 2 cbr 210 ------- 0 0.0 1.0 28 28 1
+ 0.21084 2 1 cbr 210 ------- 0 0.0 1.0 28 28 1
- 0.21084 2 1 cbr 210 ------- 0 0.0 1.0 28 28 1
+ 0.2125 0 2 cbr 210 ------- 0 0.0 1.0 30 30 1
- 0.2125 0 2 cbr 210 ------- 0 0.0 1.0 30 30 1
r 0.21446 2 1 cbr 210 ------- 0 0.0 1.0 26 26 1
r 0.21459 0 2 cbr 210 ------- 0 0.0 1.0 29 29 2
+ 0.21459 2 1 cbr 210 ------- 0 0.0 1.0 29 29 2
- 0.21459 2 1 cbr 210 ------- 0 0.0 1.0 29 29 2
+ 0.21625 0 2 cbr 210 ------- 0 0.0 1.0 31 31 2
- 0.21625 0 2 cbr 210 ------- 0 0.0 1.0 31 31 2
r 0.21821 2 1 cbr 210 ------- 0 0.0 1.0 27 27 2
r 0.21834 0 2 cbr 210 ------- 0 0.0 1.0 30 30 1
+ 0.21834 2 1 cbr 210 ------- 0 0.0 1.0 30 30 1
- 0.21834 2 1 cbr 210 ------- 0 0.0 1.0 30 30 1
+ 0.22 0 2 cbr 210 ------- 0 0.0 1.0 32 32 1
- 0.22 0 2 cbr 210 ------- 0 0.0 1.0 32 32 1
r 0.22196 2 1 cbr 210 ------- 0 0.0 1.0 28 28 1
r 0.22209 0 2 cbr 210 ------- 0 0.0 1.0 31 31 2
+ 0.22209 2 1 cbr 210 ------- 0 0.0 1.0 31 31 2
- 0.22209 2 1 cbr 210 ------- 0 0.0 1.0 31 31 2
+ 0.22375 0 2 cbr 210 ------- 0 0.0 1.0 33 33 2
- 0.22375 0 2 cbr 210 ------- 0 0.0 1.0 33 33 2
r 0.22571 2 1 cbr 210 ------- 0 0.0 1.0 29 29 2
r 0.22584 0 2 cbr 210 ------- 0 0.0 1.0 32 32 1
+ 0.22584 2 1 cbr 210 ------- 0 0.0 1.0 32 32 1
- 0.22584 2 1 cbr 210 ------- 0 0.0 1.0 32 32 1
+ 0.2275 0 2 cbr 210 ------- 0 0.0 1.0 34 34 1
- 0.2275 0 2 cbr 210 ------- 0 0.0 1.0 34 34 1
r 0.22946 2 1 cbr 210 ------- 0 0.0 1.0 30 30 1
r 0.22959 0 2 cbr 210 ------- 0 0.0 1.0 33 33 2
+ 0.22959 2 1 cbr 210 ------- 0 0.0 1.0 33 33 2
- 0.22959 2 1 cbr 210 ------- 0 0.0 1.0 33 33 2
+ 0.23125 0 2 cbr 210 ------- 0 0.0 1.0 35 35 2
- 0.23125 0 2 cbr 210 ------- 0 0.0 1.0 35 35 2
r 0.23321 2 1 cbr 210 ------- 0 0.0 1.0 31 31 2
r 0.23334 0 2 cbr 210 ------- 0 0.0 1.0 34 34 1
+ 0.23334 2 1 cbr 210 ------- 0 0.0 1.0 34 34 1
- 0.23334 2 1 cbr 210 ------- 0 0.0 1.0 34 34 1
+ 0.235 0 2 cbr 210 ------- 0 0.0 1.0 36 36 1
- 0.235 0 2 cbr 210 ------- 0 0.0 1.0 36 36 1
r 0.23696 2 1 cbr 210 ------- 0 0.0 1.0 32 32 1
r 0.23709 0 2 cbr 210 ------- 0 0.0 1.0 35 35 2
+ 0.23709 2 1 cbr 210 ------- 0 0.0 1.0 35 35 2
- 0.23709 2 1 cbr 210 ------- 0 0.0 1.0 35 35 2
+ 0.23875 0 2 cbr 210 ------- 0 0.0 1.0 37 37 2
- 0.23875 0 2 cbr 210 ------- 0 0.0 1.0 37 37 2
r 0.24071 2 1 cbr 210 ------- 0 0.0 1.0 33 33 2
r 0.24084 0 2 cbr 210 ------- 0 0.0 1.0 36 36 1
+ 0.24084 2 1 cbr 210 ------- 0 0.0 1.0 36 36 1
- 0.24084 2 1 cbr 210 ------- 0 0.0 1.0 36 36 1
+ 0.2425 0 2 cbr 210 ------- 0 0.0 1.0 38 38 1
- 0.2425 0 2 cbr 210 ------- 0 0.0 1.0 38 38 1
r 0.24446 2 1 cbr 210 ------- 0 0.0 1.0 34 34 1
r 0.24459 0 2 cbr 210 ------- 0 0.0 1.0 37 37 2
+ 0.24459 2 1 cbr 210 ------- 0 0.0 1.0 37 37 2
- 0.24459 2 1 cbr 210 ------- 0 0.0 1.0 37 37 2
+ 0.24625 0 2 cbr 210 ------- 0 0.0 1.0 39 39 2
- 0.24625 0 2 cbr 210 ------- 0 0.0 1.0 39 39 2
r 0.24821 2 1 cbr 210 ------- 0 0.0 1.0 35 35 2
r 0.24834 0 2 cbr 210 ------- 0 0.0 1.0 38 38 1
+ 0.24834 2 1 cbr 210 ------- 0 0.0 1.0 38 38 1
- 0.24834 2 1 cbr 210 ------- 0 0.0 1.0 38 38 1
+ 0.25 0 2 cbr 210 ------- 0 0.0 1.0 40 40 1
- 0.25 0 2 cbr 210 ------- 0 0.0 1.0 40 40 1
r 0.25196 2 1 cbr 210 ------- 0 0.0 1.0 36 36 1
r 0.25209 0 2 cbr 210 ------- 0 0.0 1.0 39 39 2
+ 0.25209 2 1 cbr 210 ------- 0 0.0 1.0 39 39 2
- 0.25209 2 1 cbr 210 ------- 0 0.0 1.0 39 39 2
+ 0.25375 0 2 cbr 210 ------- 0 0.0 1.0 41 41 2
- 0.25375 0 2 cbr 210 ------- 0 0.0 1.0 41 41 2
r 0.25571 2 1 cbr 210 ------- 0 0.0 1.0 37 37 2
r 0.25584 0 2 cbr 210 ------- 0 0.0 1.0 40 40 1
+ 0.25584 2 1 cbr 210 ------- 0 0.0 1.0 40 40 1
- 0.25584 2 1 cbr 210 ------- 0 0.0 1.0 40 40 1
+ 0.2575 0 2 cbr 210 ------- 0 0.0 1.0 42 42 1
- 0.2575 0 2 cbr 210 ------- 0 0.0 1.0 42 42 1
r 0.25946 2 1 cbr 210 ------- 0 0.0 1.0 38 38 1
r 0.25959 0 2 cbr 210 ------- 0 0.0 1.0 41 41 2
+ 0.25959 2 1 cbr 210 ------- 0 0.0 1.0 41 41 2
- 0.25959 2 1 cbr 210 ------- 0 0.0 1.0 41 41 2
+ 0.26125 0 2 cbr 210 ------- 0 0.0 1.0 43 43 2
- 0.26125 0 2 cbr 210 ------- 0 0.0 1.0 43 43 2
r 0.26321 2 1 cbr 210 ------- 0 0.0 1.0 39 39 2
r 0.26334 0 2 cbr 210 ------- 0 0.0 1.0 42 42 1
+ 0.26334 2 1 cbr 210 ------- 0 0.0 1.0 42 42 1
- 0.26334 2 1 cbr 210 ------- 0 0.0 1.0 42 42 1
+ 0.265 0 2 cbr 210 ------- 0 0.0 1.0 44 44 1
- 0.265 0 2 cbr 210 ------- 0 0.0 1.0 44 44 1
r 0.26696 2 1 cbr 210 ------- 0 0.0 1.0 40 40 1
r 0.26709 0 2 cbr 210 ------- 0 0.0 1.0 43 43 2
+ 0.26709 2 1 cbr 210 ------- 0 0.0 1.0 43 43 2
- 0.26709 2 1 cbr 210 ------- 0 0.0 1.0 43 43 2
+ 0.26875 0 2 cbr 210 ------- 0 0.0 1.0 45 45 2
- 0.26875 0 2 cbr 210 ------- 0 0.0 1.0 45 45 2
r 0.27071 2 1 cbr 210 ------- 0 0.0 1.0 41 41 2
r 0.27084 0 2 cbr 210 ------- 0 0.0 1.0 44 44 1
+ 0.27084 2 1 cbr 210 ------- 0 0.0 1.0 44 44 1
- 0.27084 2 1 cbr 210 ------- 0 0.0 1.0 44 44 1
+ 0.2725 0 2 cbr 210 ------- 0 0.0 1.0 46 46 1
- 0.2725 0 2 cbr 210 ------- 0 0.0 1.0 46 46 1
r 0.27446 2 1 cbr 210 ------- 0 0.0 1.0 42 42 1
r 0.27459 0 2 cbr 210 ------- 0 0.0 1.0 45 45 2
+ 0.27459 2 1 cbr 210 ------- 0 0.0 1.0 45 45 2
- 0.27459 2 1 cbr 210 ------- 0 0.0 1.0 45 45 2
+ 0.27625 0 2 cbr 210 ------- 0 0.0 1.0 47 47 2
- 0.27625 0 2 cbr 210 ------- 0 0.0 1.0 47 47 2
r 0.27821 2 1 cbr 210 ------- 0 0.0 1.0 43 43 2
r 0.27834 0 2 cbr 210 ------- 0 0.0 1.0 46 46 1
+ 0.27834 2 1 cbr 210 ------- 0 0.0 1.0 46 46 1
- 0.27834 2 1 cbr 210 ------- 0 0.0 1.0 46 46 1
+ 0.28 0 2 cbr 210 ------- 0 0.0 1.0 48 48 1
- 0.28 0 2 cbr 210 ------- 0 0.0 1.0 48 48 1
r 0.28196 2 1 cbr 210 ------- 0 0.0 1.0 44 44 1
r 0.28209 0 2 cbr 210 ------- 0 0.0 1.0 47 47 2
+ 0.28209 2 1 cbr 210 ------- 0 0.0 1.0 47 47 2
- 0.28209 2 1 cbr 210 ------- 0 0.0 1.0 47 47 2
+ 0.28375 0 2 cbr 210 ------- 0 0.0 1.0 49 49 2
- 0.28375 0 2 cbr 210 ------- 0 0.0 1.0 49 49 2
r 0.28571 2 1 cbr 210 ------- 0 0.0 1.0 45 45 2
r 0.28584 0 2 cbr 210 ------- 0 0.0 1.0 48 48 1
+ 0.28584 2 1 cbr 210 ------- 0 0.0 1.0 48 48 1
- 0.28584 2 1 cbr 210 ------- 0 0.0 1.0 48 48 1
+ 0.2875 0 2 cbr 210 ------- 0 0.0 1.0 50 50 1
- 0.2875 0 2 cbr 210 ------- 0 0.0 1.0 50 50 1
r 0.28946 2 1 cbr 210 ------- 0 0.0 1.0 46 46 1
r 0.28959 0 2 cbr 210 ------- 0 0.0 1.0 49 49 2
+ 0.28959 2 1 cbr 210 ------- 0 0.0 1.0 49 49 2
- 0.28959 2 1 cbr 210 ------- 0 0.0 1.0 49 49 2
+ 0.29125 0 2 cbr 210 ------- 0 0.0 1.0 51 51 2
- 0.29125 0 2 cbr 210 ------- 0 0.0 1.0 51 51 2
r 0.29321 2 1 cbr 210 ------- 0 0.0 1.0 47 47 2
r 0.29334 0 2 cbr 210 ------- 0 0.0 1.0 50 50 1
+ 0.29334 2 1 cbr 210 ------- 0 0.0 1.0 50 50 1
- 0.29334 2 1 cbr 210 ------- 0 0.0 1.0 50 50 1
+ 0.295 0 2 cbr 210 ------- 0 0.0 1.0 52 52 1
- 0.295 0 2 cbr 210 ------- 0 0.0 1.0 52 52 1
r 0.29696 2 1 cbr 210 ------- 0 0.0 1.0 48 48 1
r 0.29709 0 2 cbr 210 ------- 0 0.0 1.0 51 51 2
+ 0.29709 2 1 cbr 210 ------- 0 0.0 1.0 51 51 2
- 0.29709 2 1 cbr 210 ------- 0 0.0 1.0 51 51 2
+ 0.29875 0 2 cbr 210 ------- 0 0.0 1.0 53 53 2
- 0.29875 0 2 cbr 210 ------- 0 0.0 1.0 53 53 2
r 0.30071 2 1 cbr 210 ------- 0 0.0 1.0 49 49 2
r 0.30084 0 2 cbr 210 ------- 0 0.0 1.0 52 52 1
+ 0.30084 2 1 cbr 210 ------- 0 0.0 1.0 52 52 1
- 0.30084 2 1 cbr 210 ------- 0 0.0 1.0 52 52 1
+ 0.3025 0 2 cbr 210 ------- 0 0.0 1.0 54 54 1
- 0.3025 0 2 cbr 210 ------- 0 0.0 1.0 54 54 1
r 0.30446 2 1 cbr 210 ------- 0 0.0 1.0 50 50 1
r 0.30459 0 2 cbr 210 ------- 0 0.0 1.0 53 53 2
+ 0.30459 2 1 cbr 210 ------- 0 0.0 1.0 53 53 2
- 0.30459 2 1 cbr 210 ------- 0 0.0 1.0 53 53 2
+ 0.30625 0 2 cbr 210 ------- 0 0.0 1.0 55 55 2
- 0.30625 0 2 cbr 210 ------- 0 0.0 1.0 55 55 2
r 0.30821 2 1 cbr 210 ------- 0 0.0 1.0 51 51 2
r 0.30834 0 2 cbr 210 ------- 0 0.0 1.0 54 54 1
+ 0.30834 2 1 cbr 210 ------- 0 0.0 1.0 54 54 1
- 0.30834 2 1 cbr 210 ------- 0 0.0 1.0 54 54 1
+ 0.31 0 2 cbr 210 ------- 0 0.0 1.0 56 56 1
- 0.31 0 2 cbr 210 ------- 0 0.0 1.0 56 56 1
r 0.31196 2 1 cbr 210 ------- 0 0.0 1.0 52 52 1
r 0.31209 0 2 cbr 210 ------- 0 0.0 1.0 55 55 2
+ 0.31209 2 1 cbr 210 ------- 0 0.0 1.0 55 55 2
- 0.31209 2 1 cbr 210 ------- 0 0.0 1.0 55 55 2
+ 0.31375 0 2 cbr 210 ------- 0 0.0 1.0 57 57 2
- 0.31375 0 2 cbr 210 ------- 0 0.0 1.0 57 57 2
r 0.31571 2 1 cbr 210 ------- 0 0.0 1.0 53 53 2
r 0.31584 0 2 cbr 210 ------- 0 0.0 1.0 56 56 1
+ 0.31584 2 1 cbr 210 ------- 0 0.0 1.0 56 56 1
- 0.31584 2 1 cbr 210 ------- 0 0.0 1.0 56 56 1
+ 0.3175 0 2 cbr 210 ------- 0 0.0 1.0 58 58 1
- 0.3175 0 2 cbr 210 ------- 0 0.0 1.0 58 58 1
r 0.31946 2 1 cbr 210 ------- 0 0.0 1.0 54 54 1
r 0.31959 0 2 cbr 210 ------- 0 0.0 1.0 57 57 2
+ 0.31959 2 1 cbr 210 ------- 0 0.0 1.0 57 57 2
- 0.31959 2 1 cbr 210 ------- 0 0.0 1.0 57 57 2
+ 0.32125 0 2 cbr 210 ------- 0 0.0 1.0 59 59 2
- 0.32125 0 2 cbr 210 ------- 0 0.0 1.0 59 59 2
r 0.32321 2 1 cbr 210 ------- 0 0.0 1.0 55 55 2
r 0.32334 0 2 cbr 210 ------- 0 0.0 1.0 58 58 1
+ 0.32334 2 1 cbr 210 ------- 0 0.0 1.0 58 58 1
- 0.32334 2 1 cbr 210 ------- 0 0.0 1.0 58 58 1
+ 0.325 0 2 cbr 210 ------- 0 0.0 1.0 60 60 1
- 0.325 0 2 cbr 210 ------- 0 0.0 1.0 60 60 1
r 0.32696 2 1 cbr 210 ------- 0 0.0 1.0 56 56 1
r 0.32709 0 2 cbr 210 ------- 0 0.0 1.0 59 59 2
+ 0.32709 2 1 cbr 210 ------- 0 0.0 1.0 59 59 2
- 0.32709 2 1 cbr 210 ------- 0 0.0 1.0 59 59 2
+ 0.32875 0 2 cbr 210 ------- 0 0.0 1.0 61 61 2
- 0.32875 0 2 cbr 210 ------- 0 0.0 1.0 61 61 2
r 0.33071 2 1 cbr 210 ------- 0 0.0 1.0 57 57 2
r 0.33084 0 2 cbr 210 ------- 0 0.0 1.0 60 60 1
+ 0.33084 2 1 cbr 210 ------- 0 0.0 1.0 60 60 1
- 0.33084 2 1 cbr 210 ------- 0 0.0 1.0 60 60 1
+ 0.3325 0 2 cbr 210 ------- 0 0.0 1.0 62 62 1
- 0.3325 0 2 cbr 210 ------- 0 0.0 1.0 62 62 1
r 0.33446 2 1 cbr 210 ------- 0 0.0 1.0 58 58 1
r 0.33459 0 2 cbr 210 ------- 0 0.0 1.0 61 61 2
+ 0.33459 2 1 cbr 210 ------- 0 0.0 1.0 61 61 2
- 0.33459 2 1 cbr 210 ------- 0 0.0 1.0 61 61 2
+ 0.33625 0 2 cbr 210 ------- 0 0.0 1.0 63 63 2
- 0.33625 0 2 cbr 210 ------- 0 0.0 1.0 63 63 2
r 0.33821 2 1 cbr 210 ------- 0 0.0 1.0 59 59 2
r 0.33834 0 2 cbr 210 ------- 0 0.0 1.0 62 62 1
+ 0.33834 2 1 cbr 210 ------- 0 0.0 1.0 62 62 1
- 0.33834 2 1 cbr 210 ------- 0 0.0 1.0 62 62 1
+ 0.34 0 2 cbr 210 ------- 0 0.0 1.0 64 64 1
- 0.34 0 2 cbr 210 ------- 0 0.0 1.0 64 64 1
r 0.34196 2 1 cbr 210 ------- 0 0.0 1.0 60 60 1
r 0.34209 0 2 cbr 210 ------- 0 0.0 1.0 63 63 2
+ 0.34209 2 1 cbr 210 ------- 0 0.0 1.0 63 63 2
- 0.34209 2 1 cbr 210 ------- 0 0.0 1.0 63 63 2
+ 0.34375 0 2 cbr 210 ------- 0 0.0 1.0 65 65 2
- 0.34375 0 2 cbr 210 ------- 0 0.0 1.0 65 65 2
r 0.34571 2 1 cbr 210 ------- 0 0.0 1.0 61 61 2
r 0.34584 0 2 cbr 210 ------- 0 0.0 1.0 64 64 1
+ 0.34584 2 1 cbr 210 ------- 0 0.0 1.0 64 64 1
- 0.34584 2 1 cbr 210 ------- 0 0.0 1.0 64 64 1
+ 0.3475 0 2 cbr 210 ------- 0 0.0 1.0 66 66 1
- 0.3475 0 2 cbr 210 ------- 0 0.0 1.0 66 66 1
r 0.34946 2 1 cbr 210 ------- 0 0.0 1.0 62 62 1
r 0.34959 0 2 cbr 210 ------- 0 0.0 1.0 65 65 2
+ 0.34959 2 1 cbr 210 ------- 0 0.0 1.0 65 65 2
- 0.34959 2 1 cbr 210 ------- 0 0.0 1.0 65 65 2
+ 0.35125 0 2 cbr 210 ------- 0 0.0 1.0 67 67 2
- 0.35125 0 2 cbr 210 ------- 0 0.0 1.0 67 67 2
r 0.35321 2 1 cbr 210 ------- 0 0.0 1.0 63 63 2
r 0.35334 0 2 cbr 210 ------- 0 0.0 1.0 66 66 1
+ 0.35334 2 1 cbr 210 ------- 0 0.0 1.0 66 66 1
- 0.35334 2 1 cbr 210 ------- 0 0.0 1.0 66 66 1
+ 0.355 0 2 cbr 210 ------- 0 0.0 1.0 68 68 1
- 0.355 0 2 cbr 210 ------- 0 0.0 1.0 68 68 1
r 0.35696 2 1 cbr 210 ------- 0 0.0 1.0 64 64 1
r 0.35709 0 2 cbr 210 ------- 0 0.0 1.0 67 67 2
+ 0.35709 2 1 cbr 210 ------- 0 0.0 1.0 67 67 2
- 0.35709 2 1 cbr 210 ------- 0 0.0 1.0 67 67 2
+ 0.35875 0 2 cbr 210 ------- 0 0.0 1.0 69 69 2
- 0.35875 0 2 cbr 210 ------- 0 0.0 1.0 69 69 2
r 0.36071 2 1 cbr 210 ------- 0 0.0 1.0 65 65 2
r 0.36084 0 2 cbr 210 ------- 0 0.0 1.0 68 68 1
+ 0.36084 2 1 cbr 210 ------- 0 0.0 1.0 68 68 1
- 0.36084 2 1 cbr 210 ------- 0 0.0 1.0 68 68 1
+ 0.3625 0 2 cbr 210 ------- 0 0.0 1.0 70 70 1
- 0.3625 0 2 cbr 210 ------- 0 0.0 1.0 70 70 1
r 0.36446 2 1 cbr 210 ------- 0 0.0 1.0 66 66 1
r 0.36459 0 2 cbr 210 ------- 0 0.0 1.0 69 69 2
+ 0.36459 2 1 cbr 210 ------- 0 0.0 1.0 69 69 2
- 0.36459 2 1 cbr 210 ------- 0 0.0 1.0 69 69 2
+ 0.36625 0 2 cbr 210 ------- 0 0.0 1.0 71 71 2
- 0.36625 0 2 cbr 210 ------- 0 0.0 1.0 71 71 2
r 0.36821 2 1 cbr 210 ------- 0 0.0 1.0 67 67 2
r 0.36834 0 2 cbr 210 ------- 0 0.0 1.0 70 70 1
+ 0.36834 2 1 cbr 210 ------- 0 0.0 1.0 70 70 1
- 0.36834 2 1 cbr 210 ------- 0 0.0 1.0 70 70 1
+ 0.37 0 2 cbr 210 ------- 0 0.0 1.0 72 72 1
- 0.37 0 2 cbr 210 ------- 0 0.0 1.0 72 72 1
r 0.37196 2 1 cbr 210 ------- 0 0.0 1.0 68 68 1
r 0.37209 0 2 cbr 210 ------- 0 0.0 1.0 71 71 2
+ 0.37209 2 1 cbr 210 ------- 0 0.0 1.0 71 71 2
- 0.37209 2 1 cbr 210 ------- 0 0.0 1.0 71 71 2
+ 0.37375 0 2 cbr 210 ------- 0 0.0 1.0 73 73 2
- 0.37375 0 2 cbr 210 ------- 0 0.0 1.0 73 73 2
r 0.37571 2 1 cbr 210 ------- 0 0.0 1.0 69 69 2
r 0.37584 0 2 cbr 210 ------- 0 0.0 1.0 72 72 1
+ 0.37584 2 1 cbr 210 ------- 0 0.0 1.0 72 72 1
- 0.37584 2 1 cbr 210 ------- 0 0.0 1.0 72 72 1
+ 0.3775 0 2 cbr 210 ------- 0 0.0 1.0 74 74 1
- 0.3775 0 2 cbr 210 ------- 0 0.0 1.0 74 74 1
r 0.37946 2 1 cbr 210 ------- 0 0.0 1.0 70 70 1
r 0.37959 0 2 cbr 210 ------- 0 0.0 1.0 73 73 2
+ 0.37959 2 1 cbr 210 ------- 0 0.0 1.0 73 73 2
- 0.37959 2 1 cbr 210 ------- 0 0.0 1.0 73 73 2
+ 0.38125 0 2 cbr 210 ------- 0 0.0 1.0 75 75 2
- 0.38125 0 2 cbr 210 ------- 0 0.0 1.0 75 75 2
r 0.38321 2 1 cbr 210 ------- 0 0.0 1.0 71 71 2
r 0.38334 0 2 cbr 210 ------- 0 0.0 1.0 74 74 1
+ 0.38334 2 1 cbr 210 ------- 0 0.0 1.0 74 74 1
- 0.38334 2 1 cbr 210 ------- 0 0.0 1.0 74 74 1
+ 0.385 0 2 cbr 210 ------- 0 0.0 1.0 76 76 1
- 0.385 0 2 cbr 210 ------- 0 0.0 1.0 76 76 1
r 0.38696 2 1 cbr 210 ------- 0 0.0 1.0 72 72 1
r 0.38709 0 2 cbr 210 ------- 0 0.0 1.0 75 75 2
+ 0.38709 2 1 cbr 210 ------- 0 0.0 1.0 75 75 2
- 0.38709 2 1 cbr 210 ------- 0 0.0 1.0 75 75 2
+ 0.38875 0 2 cbr 210 ------- 0 0.0 1.0 77 77 2
- 0.38875 0 2 cbr 210 ------- 0 0.0 1.0 77 77 2
r 0.39071 2 1 cbr 210 ------- 0 0.0 1.0 73 73 2
r 0.39084 0 2 cbr 210 ------- 0 0.0 1.0 76 76 1
+ 0.39084 2 1 cbr 210 ------- 0 0.0 1.0 76 76 1
- 0.39084 2 1 cbr 210 ------- 0 0.0 1.0 76 76 1
+ 0.3925 0 2 cbr 210 ------- 0 0.0 1.0 78 78 1
- 0.3925 0 2 cbr 210 ------- 0 0.0 1.0 78 78 1
r 0.39446 2 1 cbr 210 ------- 0 0.0 1.0 74 74 1
r 0.39459 0 2 cbr 210 ------- 0 0.0 1.0 77 77 2
+ 0.39459 2 1 cbr 210 ------- 0 0.0 1.0 77 77 2
- 0.39459 2 1 cbr 210 ------- 0 0.0 1.0 77 77 2
+ 0.39625 0 2 cbr 210 ------- 0 0.0 1.0 79 79 2
- 0.39625 0 2 cbr 210 ------- 0 0.0 1.0 79 79 2
r 0.39821 2 1 cbr 210 ------- 0 0.0 1.0 75 75 2
r 0.39834 0 2 cbr 210 ------- 0 0.0 1.0 78 78 1
+ 0.39834 2 1 cbr 210 ------- 0 0.0 1.0 78 78 1
- 0.39834 2 1 cbr 210 ------- 0 0.0 1.0 78 78 1
+ 0.4 0 2 cbr 210 ------- 0 0.0 1.0 80 80 1
- 0.4 0 2 cbr 210 ------- 0 0.0 1.0 80 80 1
r 0.40196 2 1 cbr 210 ------- 0 0.0 1.0 76 76 1
r 0.40209 0 2 cbr 210 ------- 0 0.0 1.0 79 79 2
+ 0.40209 2 1 cbr 210 ------- 0 0.0 1.0 79 79 2
- 0.40209 2 1 cbr 210 ------- 0 0.0 1.0 79 79 2
+ 0.40375 0 2 cbr 210 ------- 0 0.0 1.0 81 81 2
- 0.40375 0 2 cbr 210 ------- 0 0.0 1.0 81 81 2
r 0.40571 2 1 cbr 210 ------- 0 0.0 1.0 77 77 2
r 0.40584 0 2 cbr 210 ------- 0 0.0 1.0 80 80 1
+ 0.40584 2 1 cbr 210 ------- 0 0.0 1.0 80 80 1
- 0.40584 2 1 cbr 210 ------- 0 0.0 1.0 80 80 1
+ 0.4075 0 2 cbr 210 ------- 0 0.0 1.0 82 82 1
- 0.4075 0 2 cbr 210 ------- 0 0.0 1.0 82 82 1
r 0.40946 2 1 cbr 210 ------- 0 0.0 1.0 78 78 1
r 0.40959 0 2 cbr 210 ------- 0 0.0 1.0 81 81 2
+ 0.40959 2 1 cbr 210 ------- 0 0.0 1.0 81 81 2
- 0.40959 2 1 cbr 210 ------- 0 0.0 1.0 81 81 2
+ 0.41125 0 2 cbr 210 ------- 0 0.0 1.0 83 83 2
- 0.41125 0 2 cbr 210 ------- 0 0.0 1.0 83 83 2
r 0.41321 2 1 cbr 210 ------- 0 0.0 1.0 79 79 2
r 0.41334 0 2 cbr 210 ------- 0 0.0 1.0 82 82 1
+ 0.41334 2 1 cbr 210 ------- 0 0.0 1.0 82 82 1
- 0.41334 2 1 cbr 210 ------- 0 0.0 1.0 82 82 1
+ 0.415 0 2 cbr 210 ------- 0 0.0 1.0 84 84 1
- 0.415 0 2 cbr 210 ------- 0 0.0 1.0 84 84 1
r 0.41696 2 1 cbr 210 ------- 0 0.0 1.0 80 80 1
r 0.41709 0 2 cbr 210 ------- 0 0.0 1.0 83 83 2
+ 0.41709 2 1 cbr 210 ------- 0 0.0 1.0 83 83 2
- 0.41709 2 1 cbr 210 ------- 0 0.0 1.0 83 83 2
+ 0.41875 0 2 cbr 210 ------- 0 0.0 1.0 85 85 2
- 0.41875 0 2 cbr 210 ------- 0 0.0 1.0 85 85 2
r 0.42071 2 1 cbr 210 ------- 0 0.0 1.0 81 81 2
r 0.42084 0 2 cbr 210 ------- 0 0.0 1.0 84 84 1
+ 0.42084 2 1 cbr 210 ------- 0 0.0 1.0 84 84 1
- 0.42084 2 1 cbr 210 ------- 0 0.0 1.0 84 84 1
+ 0.4225 0 2 cbr 210 ------- 0 0.0 1.0 86 86 1
- 0.4225 0 2 cbr 210 ------- 0 0.0 1.0 86 86 1
r 0.42446 2 1 cbr 210 ------- 0 0.0 1.0 82 82 1
r 0.42459 0 2 cbr 210 ------- 0 0.0 1.0 85 85 2
+ 0.42459 2 1 cbr 210 ------- 0 0.0 1.0 85 85 2
- 0.42459 2 1 cbr 210 ------- 0 0.0 1.0 85 85 2
+ 0.42625 0 2 cbr 210 ------- 0 0.0 1.0 87 87 2
- 0.42625 0 2 cbr 210 ------- 0 0.0 1.0 87 87 2
r 0.42821 2 1 cbr 210 ------- 0 0.0 1.0 83 83 2
r 0.42834 0 2 cbr 210 ------- 0 0.0 1.0 86 86 1
+ 0.42834 2 1 cbr 210 ------- 0 0.0 1.0 86 86 1
- 0.42834 2 1 cbr 210 ------- 0 0.0 1.0 86 86 1
+ 0.43 0 2 cbr 210 ------- 0 0.0 1.0 88 88 1
- 0.43 0 2 cbr 210 ------- 0 0.0 1.0 88 88 1
r 0.43196 2 1 cbr 210 ------- 0 0.0 1.0 84 84 1
r 0.43209 0 2 cbr 210 ------- 0 0.0 1.0 87 87 2
+ 0.43209 2 1 cbr 210 ------- 0 0.0 1.0 87 87 2
- 0.43209 2 1 cbr 210 ------- 0 0.0 1.0 87 87 2
+ 0.43375 0 2 cbr 210 ------- 0 0.0 1.0 89 89 2
- 0.43375 0 2 cbr 210 ------- 0 0.0 1.0 89 89 2
r 0.43571 2 1 cbr 210 ------- 0 0.0 1.0 85 85 2
r 0.43584 0 2 cbr 210 ------- 0 0.0 1.0 88 88 1
+ 0.43584 2 1 cbr 210 ------- 0 0.0 1.0 88 88 1
- 0.43584 2 1 cbr 210 ------- 0 0.0 1.0 88 88 1
+ 0.4375 0 2 cbr 210 ------- 0 0.0 1.0 90 90 1
- 0.4375 0 2 cbr 210 ------- 0 0.0 1.0 90 90 1
r 0.43946 2 1 cbr 210 ------- 0 0.0 1.0 86 86 1
r 0.43959 0 2 cbr 210 ------- 0 0.0 1.0 89 89 2
+ 0.43959 2 1 cbr 210 ------- 0 0.0 1.0 89 89 2
- 0.43959 2 1 cbr 210 ------- 0 0.0 1.0 89 89 2
+ 0.44125 0 2 cbr 210 ------- 0 0.0 1.0 91 91 2
- 0.44125 0 2 cbr 210 ------- 0 0.0 1.0 91 91 2
r 0.44321 2 1 cbr 210 ------- 0 0.0 1.0 87 87 2
r 0.44334 0 2 cbr 210 ------- 0 0.0 1.0 90 90 1
+ 0.44334 2 1 cbr 210 ------- 0 0.0 1.0 90 90 1
- 0.44334 2 1 cbr 210 ------- 0 0.0 1.0 90 90 1
+ 0.445 0 2 cbr 210 ------- 0 0.0 1.0 92 92 1
- 0.445 0 2 cbr 210 ------- 0 0.0 1.0 92 92 1
r 0.44696 2 1 cbr 210 ------- 0 0.0 1.0 88 88 1
r 0.44709 0 2 cbr 210 ------- 0 0.0 1.0 91 91 2
+ 0.44709 2 1 cbr 210 ------- 0 0.0 1.0 91 91 2
- 0.44709 2 1 cbr 210 ------- 0 0.0 1.0 91 91 2
+ 0.44875 0 2 cbr 210 ------- 0 0.0 1.0 93 93 2
- 0.44875 0 2 cbr 210 ------- 0 0.0 1.0 93 93 2
r 0.45071 2 1 cbr 210 ------- 0 0.0 1.0 89 89 2
r 0.45084 0 2 cbr 210 ------- 0 0.0 1.0 92 92 1
+ 0.45084 2 1 cbr 210 ------- 0 0.0 1.0 92 92 1
- 0.45084 2 1 cbr 210 ------- 0 0.0 1.0 92 92 1
+ 0.4525 0 2 cbr 210 ------- 0 0.0 1.0 94 94 1
- 0.4525 0 2 cbr 210 ------- 0 0.0 1.0 94 94 1
r 0.45446 2 1 cbr 210 ------- 0 0.0 1.0 90 90 1
r 0.45459 0 2 cbr 210 ------- 0 0.0 1.0 93 93 2
+ 0.45459 2 1 cbr 210 ------- 0 0.0 1.0 93 93 2
- 0.45459 2 1 cbr 210 ------- 0 0.0 1.0 93 93 2
+ 0.45625 0 2 cbr 210 ------- 0 0.0 1.0 95 95 2
- 0.45625 0 2 cbr 210 ------- 0 0.0 1.0 95 95 2
r 0.45821 2 1 cbr 210 ------- 0 0.0 1.0 91 91 2
r 0.45834 0 2 cbr 210 ------- 0 0.0 1.0 94 94 1
+ 0.45834 2 1 cbr 210 ------- 0 0.0 1.0 94 94 1
- 0.45834 2 1 cbr 210 ------- 0 0.0 1.0 94 94 1
+ 0.46 0 2 cbr 210 ------- 0 0.0 1.0 96 96 1
- 0.46 0 2 cbr 210 ------- 0 0.0 1.0 96 96 1
r 0.46196 2 1 cbr 210 ------- 0 0.0 1.0 92 92 1
r 0.46209 0 2 cbr 210 ------- 0 0.0 1.0 95 95 2
+ 0.46209 2 1 cbr 210 ------- 0 0.0 1.0 95 95 2
- 0.46209 2 1 cbr 210 ------- 0 0.0 1.0 95 95 2
+ 0.46375 0 2 cbr 210 ------- 0 0.0 1.0 97 97 2
- 0.46375 0 2 cbr 210 ------- 0 0.0 1.0 97 97 2
r 0.46571 2 1 cbr 210 ------- 0 0.0 1.0 93 93 2
r 0.46584 0 2 cbr 210 ------- 0 0.0 1.0 96 96 1
+ 0.46584 2 1 cbr 210 ------- 0 0.0 1.0 96 96 1
- 0.46584 2 1 cbr 210 ------- 0 0.0 1.0 96 96 1
+ 0.4675 0 2 cbr 210 ------- 0 0.0 1.0 98 98 1
- 0.4675 0 2 cbr 210 ------- 0 0.0 1.0 98 98 1
r 0.46946 2 1 cbr 210 ------- 0 0.0 1.0 94 94 1
r 0.46959 0 2 cbr 210 ------- 0 0.0 1.0 97 97 2
+ 0.46959 2 1 cbr 210 ------- 0 0.0 1.0 97 97 2
- 0.46959 2 1 cbr 210 ------- 0 0.0 1.0 97 97 2
+ 0.47125 0 2 cbr 210 ------- 0 0.0 1.0 99 99 2
- 0.47125 0 2 cbr 210 ------- 0 0.0 1.0 99 99 2
r 0.47321 2 1 cbr 210 ------- 0 0.0 1.0 95 95 2
r 0.47334 0 2 cbr 210 ------- 0 0.0 1.0 98 98 1
+ 0.47334 2 1 cbr 210 ------- 0 0.0 1.0 98 98 1
- 0.47334 2 1 cbr 210 ------- 0 0.0 1.0 98 98 1
+ 0.475 0 2 cbr 210 ------- 0 0.0 1.0 100 100 1
- 0.475 0 2 cbr 210 ------- 0 0.0 1.0 100 100 1
r 0.47696 2 1 cbr 210 ------- 0 0.0 1.0 96 96 1
r 0.47709 0 2 cbr 210 ------- 0 0.0 1.0 99 99 2
+ 0.47709 2 1 cbr 210 ------- 0 0.0 1.0 99 99 2
- 0.47709 2 1 cbr 210 ------- 0 0.0 1.0 99 99 2
+ 0.47875 0 2 cbr 210 ------- 0 0.0 1.0 101 101 2
- 0.47875 0 2 cbr 210 ------- 0 0.0 1.0 101 101 2
r 0.48071 2 1 cbr 210 ------- 0 0.0 1.0 97 97 2
r 0.48084 0 2 cbr 210 ------- 0 0.0 1.0 100 100 1
+ 0.48084 2 1 cbr 210 ------- 0 0.0 1.0 100 100 1
- 0.48084 2 1 cbr 210 ------- 0 0.0 1.0 100 100 1
+ 0.4825 0 2 cbr 210 ------- 0 0.0 1.0 102 102 1
- 0.4825 0 2 cbr 210 ------- 0 0.0 1.0 102 102 1
r 0.48446 2 1 cbr 210 ------- 0 0.0 1.0 98 98 1
r 0.48459 0 2 cbr 210 ------- 0 0.0 1.0 101 101 2
+ 0.48459 2 1 cbr 210 ------- 0 0.0 1.0 101 101 2
- 0.48459 2 1 cbr 210 ------- 0 0.0 1.0 101 101 2
+ 0.48625 0 2 cbr 210 ------- 0 0.0 1.0 103 103 2
- 0.48625 0 2 cbr 210 ------- 0 0.0 1.0 103 103 2
r 0.48821 2 1 cbr 210 ------- 0 0.0 1.0 99 99 2
r 0.48834 0 2 cbr 210 ------- 0 0.0 1.0 102 102 1
+ 0.48834 2 1 cbr 210 ------- 0 0.0 1.0 102 102 1
- 0.48834 2 1 cbr 210 ------- 0 0.0 1.0 102 102 1
+ 0.49 0 2 cbr 210 ------- 0 0.0 1.0 104 104 1
- 0.49 0 2 cbr 210 ------- 0 0.0 1.0 104 104 1
r 0.49196 2 1 cbr 210 ------- 0 0.0 1.0 100 100 1
r 0.49209 0 2 cbr 210 ------- 0 0.0 1.0 103 103 2
+ 0.49209 2 1 cbr 210 ------- 0 0.0 1.0 103 103 2
- 0.49209 2 1 cbr 210 ------- 0 0.0 1.0 103 103 2
+ 0.49375 0 2 cbr 210 ------- 0 0.0 1.0 105 105 2
- 0.49375 0 2 cbr 210 ------- 0 0.0 1.0 105 105 2
r 0.49571 2 1 cbr 210 ------- 0 0.0 1.0 101 101 2
r 0.49584 0 2 cbr 210 ------- 0 0.0 1.0 104 104 1
+ 0.49584 2 1 cbr 210 ------- 0 0.0 1.0 104 104 1
- 0.49584 2 1 cbr 210 ------- 0 0.0 1.0 104 104 1
+ 0.4975 0 2 cbr 210 ------- 0 0.0 1.0 106 106 1