+ 0.10375 0 2 cbr 210 ------- 0 0.0 1.0 1 1
- 0.10375 0 2 cbr 210 ------- 0 0.0 1.0 1 1
r 0.10959 0 2 cbr 210 ------- 0 0.0 1.0 1 1
+ 0.10959 2 1 cbr 210 ------- 0 0.0 1.0 1 1
- 0.10959 2 1 cbr 210 ------- 0 0.0 1.0 1 1
+ 0.11125 0 2 cbr 210 ------- 0 0.0 1.0 3 3
- 0.11125 0 2 cbr 210 ------- 0 0.0 1.0 3 3
r 0.11709 0 2 cbr 210 ------- 0 0.0 1.0 3 3
+ 0.11709 2 1 cbr 210 ------- 0 0.0 1.0 3 3
- 0.11709 2 1 cbr 210 ------- 0 0.0 1.0 3 3
+ 0.11875 0 2 cbr 210 ------- 0 0.0 1.0 5 5
- 0.11875 0 2 cbr 210 ------- 0 0.0 1.0 5 5
r 0.12071 2 1 cbr 210 ------- 0 0.0 1.0 1 1
r 0.12459 0 2 cbr 210 ------- 0 0.0 1.0 5 5
+ 0.12459 2 1 cbr 210 ------- 0 0.0 1.0 5 5
- 0.12459 2 1 cbr 210 ------- 0 0.0 1.0 5 5
+ 0.12625 0 2 cbr 210 ------- 0 0.0 1.0 7 7
- 0.12625 0 2 cbr 210 ------- 0 0.0 1.0 7 7
r 0.12821 2 1 cbr 210 ------- 0 0.0 1.0 3 3
r 0.13209 0 2 cbr 210 ------- 0 0.0 1.0 7 7
+ 0.13209 2 1 cbr 210 ------- 0 0.0 1.0 7 7
- 0.13209 2 1 cbr 210 ------- 0 0.0 1.0 7 7
+ 0.13375 0 2 cbr 210 ------- 0 0.0 1.0 9 9
- 0.13375 0 2 cbr 210 ------- 0 0.0 1.0 9 9
r 0.13571 2 1 cbr 210 ------- 0 0.0 1.0 5 5
r 0.13959 0 2 cbr 210 ------- 0 0.0 1.0 9 9
+ 0.13959 2 1 cbr 210 ------- 0 0.0 1.0 9 9
- 0.13959 2 1 cbr 210 ------- 0 0.0 1.0 9 9
+ 0.14125 0 2 cbr 210 ------- 0 0.0 1.0 11 11
- 0.14125 0 2 cbr 210 ------- 0 0.0 1.0 11 11
r 0.14321 2 1 cbr 210 ------- 0 0.0 1.0 7 7
r 0.14709 0 2 cbr 210 ------- 0 0.0 1.0 11 11
+ 0.14709 2 1 cbr 210 ------- 0 0.0 1.0 11 11
- 0.14709 2 1 cbr 210 ------- 0 0.0 1.0 11 11
+ 0.14875 0 2 cbr 210 ------- 0 0.0 1.0 13 13
- 0.14875 0 2 cbr 210 ------- 0 0.0 1.0 13 13
r 0.15071 2 1 cbr 210 ------- 0 0.0 1.0 9 9
r 0.15459 0 2 cbr 210 ------- 0 0.0 1.0 13 13
+ 0.15459 2 1 cbr 210 ------- 0 0.0 1.0 13 13
- 0.15459 2 1 cbr 210 ------- 0 0.0 1.0 13 13
+ 0.15625 0 2 cbr 210 ------- 0 0.0 1.0 15 15
- 0.15625 0 2 cbr 210 ------- 0 0.0 1.0 15 15
r 0.15821 2 1 cbr 210 ------- 0 0.0 1.0 11 11
r 0.16209 0 2 cbr 210 ------- 0 0.0 1.0 15 15
+ 0.16209 2 1 cbr 210 ------- 0 0.0 1.0 15 15
- 0.16209 2 1 cbr 210 ------- 0 0.0 1.0 15 15
+ 0.16375 0 2 cbr 210 ------- 0 0.0 1.0 17 17
- 0.16375 0 2 cbr 210 ------- 0 0.0 1.0 17 17
r 0.16571 2 1 cbr 210 ------- 0 0.0 1.0 13 13
r 0.16959 0 2 cbr 210 ------- 0 0.0 1.0 17 17
+ 0.16959 2 1 cbr 210 ------- 0 0.0 1.0 17 17
- 0.16959 2 1 cbr 210 ------- 0 0.0 1.0 17 17
+ 0.17125 0 2 cbr 210 ------- 0 0.0 1.0 19 19
- 0.17125 0 2 cbr 210 ------- 0 0.0 1.0 19 19
r 0.17321 2 1 cbr 210 ------- 0 0.0 1.0 15 15
r 0.17709 0 2 cbr 210 ------- 0 0.0 1.0 19 19
+ 0.17709 2 1 cbr 210 ------- 0 0.0 1.0 19 19
- 0.17709 2 1 cbr 210 ------- 0 0.0 1.0 19 19
+ 0.17875 0 2 cbr 210 ------- 0 0.0 1.0 21 21
- 0.17875 0 2 cbr 210 ------- 0 0.0 1.0 21 21
r 0.18071 2 1 cbr 210 ------- 0 0.0 1.0 17 17
r 0.18459 0 2 cbr 210 ------- 0 0.0 1.0 21 21
+ 0.18459 2 1 cbr 210 ------- 0 0.0 1.0 21 21
- 0.18459 2 1 cbr 210 ------- 0 0.0 1.0 21 21
+ 0.18625 0 2 cbr 210 ------- 0 0.0 1.0 23 23
- 0.18625 0 2 cbr 210 ------- 0 0.0 1.0 23 23
r 0.18821 2 1 cbr 210 ------- 0 0.0 1.0 19 19
r 0.19209 0 2 cbr 210 ------- 0 0.0 1.0 23 23
+ 0.19209 2 1 cbr 210 ------- 0 0.0 1.0 23 23
- 0.19209 2 1 cbr 210 ------- 0 0.0 1.0 23 23
+ 0.19375 0 2 cbr 210 ------- 0 0.0 1.0 25 25
- 0.19375 0 2 cbr 210 ------- 0 0.0 1.0 25 25
r 0.19571 2 1 cbr 210 ------- 0 0.0 1.0 21 21
r 0.19959 0 2 cbr 210 ------- 0 0.0 1.0 25 25
+ 0.19959 2 1 cbr 210 ------- 0 0.0 1.0 25 25
- 0.19959 2 1 cbr 210 ------- 0 0.0 1.0 25 25
+ 0.20125 0 2 cbr 210 ------- 0 0.0 1.0 27 27
- 0.20125 0 2 cbr 210 ------- 0 0.0 1.0 27 27
r 0.20321 2 1 cbr 210 ------- 0 0.0 1.0 23 23
r 0.20709 0 2 cbr 210 ------- 0 0.0 1.0 27 27
+ 0.20709 2 1 cbr 210 ------- 0 0.0 1.0 27 27
- 0.20709 2 1 cbr 210 ------- 0 0.0 1.0 27 27
+ 0.20875 0 2 cbr 210 ------- 0 0.0 1.0 29 29
- 0.20875 0 2 cbr 210 ------- 0 0.0 1.0 29 29
r 0.21071 2 1 cbr 210 ------- 0 0.0 1.0 25 25
r 0.21459 0 2 cbr 210 ------- 0 0.0 1.0 29 29
+ 0.21459 2 1 cbr 210 ------- 0 0.0 1.0 29 29
- 0.21459 2 1 cbr 210 ------- 0 0.0 1.0 29 29
+ 0.21625 0 2 cbr 210 ------- 0 0.0 1.0 31 31
- 0.21625 0 2 cbr 210 ------- 0 0.0 1.0 31 31
r 0.21821 2 1 cbr 210 ------- 0 0.0 1.0 27 27
r 0.22209 0 2 cbr 210 ------- 0 0.0 1.0 31 31
+ 0.22209 2 1 cbr 210 ------- 0 0.0 1.0 31 31
- 0.22209 2 1 cbr 210 ------- 0 0.0 1.0 31 31
+ 0.22375 0 2 cbr 210 ------- 0 0.0 1.0 33 33
- 0.22375 0 2 cbr 210 ------- 0 0.0 1.0 33 33
r 0.22571 2 1 cbr 210 ------- 0 0.0 1.0 29 29
r 0.22959 0 2 cbr 210 ------- 0 0.0 1.0 33 33
+ 0.22959 2 1 cbr 210 ------- 0 0.0 1.0 33 33
- 0.22959 2 1 cbr 210 ------- 0 0.0 1.0 33 33
+ 0.23125 0 2 cbr 210 ------- 0 0.0 1.0 35 35
- 0.23125 0 2 cbr 210 ------- 0 0.0 1.0 35 35
r 0.23321 2 1 cbr 210 ------- 0 0.0 1.0 31 31
r 0.23709 0 2 cbr 210 ------- 0 0.0 1.0 35 35
+ 0.23709 2 1 cbr 210 ------- 0 0.0 1.0 35 35
- 0.23709 2 1 cbr 210 ------- 0 0.0 1.0 35 35
+ 0.23875 0 2 cbr 210 ------- 0 0.0 1.0 37 37
- 0.23875 0 2 cbr 210 ------- 0 0.0 1.0 37 37
r 0.24071 2 1 cbr 210 ------- 0 0.0 1.0 33 33
r 0.24459 0 2 cbr 210 ------- 0 0.0 1.0 37 37
+ 0.24459 2 1 cbr 210 ------- 0 0.0 1.0 37 37
- 0.24459 2 1 cbr 210 ------- 0 0.0 1.0 37 37
+ 0.24625 0 2 cbr 210 ------- 0 0.0 1.0 39 39
- 0.24625 0 2 cbr 210 ------- 0 0.0 1.0 39 39
r 0.24821 2 1 cbr 210 ------- 0 0.0 1.0 35 35
r 0.25209 0 2 cbr 210 ------- 0 0.0 1.0 39 39
+ 0.25209 2 1 cbr 210 ------- 0 0.0 1.0 39 39
- 0.25209 2 1 cbr 210 ------- 0 0.0 1.0 39 39
+ 0.25375 0 2 cbr 210 ------- 0 0.0 1.0 41 41
- 0.25375 0 2 cbr 210 ------- 0 0.0 1.0 41 41
r 0.25571 2 1 cbr 210 ------- 0 0.0 1.0 37 37
r 0.25959 0 2 cbr 210 ------- 0 0.0 1.0 41 41
+ 0.25959 2 1 cbr 210 ------- 0 0.0 1.0 41 41
- 0.25959 2 1 cbr 210 ------- 0 0.0 1.0 41 41
+ 0.26125 0 2 cbr 210 ------- 0 0.0 1.0 43 43
- 0.26125 0 2 cbr 210 ------- 0 0.0 1.0 43 43
r 0.26321 2 1 cbr 210 ------- 0 0.0 1.0 39 39
r 0.26709 0 2 cbr 210 ------- 0 0.0 1.0 43 43
+ 0.26709 2 1 cbr 210 ------- 0 0.0 1.0 43 43
- 0.26709 2 1 cbr 210 ------- 0 0.0 1.0 43 43
+ 0.26875 0 2 cbr 210 ------- 0 0.0 1.0 45 45
- 0.26875 0 2 cbr 210 ------- 0 0.0 1.0 45 45
r 0.27071 2 1 cbr 210 ------- 0 0.0 1.0 41 41
r 0.27459 0 2 cbr 210 ------- 0 0.0 1.0 45 45
+ 0.27459 2 1 cbr 210 ------- 0 0.0 1.0 45 45
- 0.27459 2 1 cbr 210 ------- 0 0.0 1.0 45 45
+ 0.27625 0 2 cbr 210 ------- 0 0.0 1.0 47 47
- 0.27625 0 2 cbr 210 ------- 0 0.0 1.0 47 47
r 0.27821 2 1 cbr 210 ------- 0 0.0 1.0 43 43
r 0.28209 0 2 cbr 210 ------- 0 0.0 1.0 47 47
+ 0.28209 2 1 cbr 210 ------- 0 0.0 1.0 47 47
- 0.28209 2 1 cbr 210 ------- 0 0.0 1.0 47 47
+ 0.28375 0 2 cbr 210 ------- 0 0.0 1.0 49 49
- 0.28375 0 2 cbr 210 ------- 0 0.0 1.0 49 49
r 0.28571 2 1 cbr 210 ------- 0 0.0 1.0 45 45
r 0.28959 0 2 cbr 210 ------- 0 0.0 1.0 49 49
+ 0.28959 2 1 cbr 210 ------- 0 0.0 1.0 49 49
- 0.28959 2 1 cbr 210 ------- 0 0.0 1.0 49 49
+ 0.29125 0 2 cbr 210 ------- 0 0.0 1.0 51 51
- 0.29125 0 2 cbr 210 ------- 0 0.0 1.0 51 51
r 0.29321 2 1 cbr 210 ------- 0 0.0 1.0 47 47
r 0.29709 0 2 cbr 210 ------- 0 0.0 1.0 51 51
+ 0.29709 2 1 cbr 210 ------- 0 0.0 1.0 51 51
- 0.29709 2 1 cbr 210 ------- 0 0.0 1.0 51 51
+ 0.29875 0 2 cbr 210 ------- 0 0.0 1.0 53 53
- 0.29875 0 2 cbr 210 ------- 0 0.0 1.0 53 53
r 0.30071 2 1 cbr 210 ------- 0 0.0 1.0 49 49
r 0.30459 0 2 cbr 210 ------- 0 0.0 1.0 53 53
+ 0.30459 2 1 cbr 210 ------- 0 0.0 1.0 53 53
- 0.30459 2 1 cbr 210 ------- 0 0.0 1.0 53 53
+ 0.30625 0 2 cbr 210 ------- 0 0.0 1.0 55 55
- 0.30625 0 2 cbr 210 ------- 0 0.0 1.0 55 55
r 0.30821 2 1 cbr 210 ------- 0 0.0 1.0 51 51
r 0.31209 0 2 cbr 210 ------- 0 0.0 1.0 55 55
+ 0.31209 2 1 cbr 210 ------- 0 0.0 1.0 55 55
- 0.31209 2 1 cbr 210 ------- 0 0.0 1.0 55 55
+ 0.31375 0 2 cbr 210 ------- 0 0.0 1.0 57 57
- 0.31375 0 2 cbr 210 ------- 0 0.0 1.0 57 57
r 0.31571 2 1 cbr 210 ------- 0 0.0 1.0 53 53
r 0.31959 0 2 cbr 210 ------- 0 0.0 1.0 57 57
+ 0.31959 2 1 cbr 210 ------- 0 0.0 1.0 57 57
- 0.31959 2 1 cbr 210 ------- 0 0.0 1.0 57 57
+ 0.32125 0 2 cbr 210 ------- 0 0.0 1.0 59 59
- 0.32125 0 2 cbr 210 ------- 0 0.0 1.0 59 59
r 0.32321 2 1 cbr 210 ------- 0 0.0 1.0 55 55
r 0.32709 0 2 cbr 210 ------- 0 0.0 1.0 59 59
+ 0.32709 2 1 cbr 210 ------- 0 0.0 1.0 59 59
- 0.32709 2 1 cbr 210 ------- 0 0.0 1.0 59 59
+ 0.32875 0 2 cbr 210 ------- 0 0.0 1.0 61 61
- 0.32875 0 2 cbr 210 ------- 0 0.0 1.0 61 61
r 0.33071 2 1 cbr 210 ------- 0 0.0 1.0 57 57
r 0.33459 0 2 cbr 210 ------- 0 0.0 1.0 61 61
+ 0.33459 2 1 cbr 210 ------- 0 0.0 1.0 61 61
- 0.33459 2 1 cbr 210 ------- 0 0.0 1.0 61 61
+ 0.33625 0 2 cbr 210 ------- 0 0.0 1.0 63 63
- 0.33625 0 2 cbr 210 ------- 0 0.0 1.0 63 63
r 0.33821 2 1 cbr 210 ------- 0 0.0 1.0 59 59
r 0.34209 0 2 cbr 210 ------- 0 0.0 1.0 63 63
+ 0.34209 2 1 cbr 210 ------- 0 0.0 1.0 63 63
- 0.34209 2 1 cbr 210 ------- 0 0.0 1.0 63 63
+ 0.34375 0 2 cbr 210 ------- 0 0.0 1.0 65 65
- 0.34375 0 2 cbr 210 ------- 0 0.0 1.0 65 65
r 0.34571 2 1 cbr 210 ------- 0 0.0 1.0 61 61
r 0.34959 0 2 cbr 210 ------- 0 0.0 1.0 65 65
+ 0.34959 2 1 cbr 210 ------- 0 0.0 1.0 65 65
- 0.34959 2 1 cbr 210 ------- 0 0.0 1.0 65 65
+ 0.35125 0 2 cbr 210 ------- 0 0.0 1.0 67 67
- 0.35125 0 2 cbr 210 ------- 0 0.0 1.0 67 67
r 0.35321 2 1 cbr 210 ------- 0 0.0 1.0 63 63
r 0.35709 0 2 cbr 210 ------- 0 0.0 1.0 67 67
+ 0.35709 2 1 cbr 210 ------- 0 0.0 1.0 67 67
- 0.35709 2 1 cbr 210 ------- 0 0.0 1.0 67 67
+ 0.35875 0 2 cbr 210 ------- 0 0.0 1.0 69 69
- 0.35875 0 2 cbr 210 ------- 0 0.0 1.0 69 69
r 0.36071 2 1 cbr 210 ------- 0 0.0 1.0 65 65
r 0.36459 0 2 cbr 210 ------- 0 0.0 1.0 69 69
+ 0.36459 2 1 cbr 210 ------- 0 0.0 1.0 69 69
- 0.36459 2 1 cbr 210 ------- 0 0.0 1.0 69 69
+ 0.36625 0 2 cbr 210 ------- 0 0.0 1.0 71 71
- 0.36625 0 2 cbr 210 ------- 0 0.0 1.0 71 71
r 0.36821 2 1 cbr 210 ------- 0 0.0 1.0 67 67
r 0.37209 0 2 cbr 210 ------- 0 0.0 1.0 71 71
+ 0.37209 2 1 cbr 210 ------- 0 0.0 1.0 71 71
- 0.37209 2 1 cbr 210 ------- 0 0.0 1.0 71 71
+ 0.37375 0 2 cbr 210 ------- 0 0.0 1.0 73 73
- 0.37375 0 2 cbr 210 ------- 0 0.0 1.0 73 73
r 0.37571 2 1 cbr 210 ------- 0 0.0 1.0 69 69
r 0.37959 0 2 cbr 210 ------- 0 0.0 1.0 73 73
+ 0.37959 2 1 cbr 210 ------- 0 0.0 1.0 73 73
- 0.37959 2 1 cbr 210 ------- 0 0.0 1.0 73 73
+ 0.38125 0 2 cbr 210 ------- 0 0.0 1.0 75 75
- 0.38125 0 2 cbr 210 ------- 0 0.0 1.0 75 75
r 0.38321 2 1 cbr 210 ------- 0 0.0 1.0 71 71
r 0.38709 0 2 cbr 210 ------- 0 0.0 1.0 75 75
+ 0.38709 2 1 cbr 210 ------- 0 0.0 1.0 75 75
- 0.38709 2 1 cbr 210 ------- 0 0.0 1.0 75 75
+ 0.38875 0 2 cbr 210 ------- 0 0.0 1.0 77 77
- 0.38875 0 2 cbr 210 ------- 0 0.0 1.0 77 77
r 0.39071 2 1 cbr 210 ------- 0 0.0 1.0 73 73
r 0.39459 0 2 cbr 210 ------- 0 0.0 1.0 77 77
+ 0.39459 2 1 cbr 210 ------- 0 0.0 1.0 77 77
- 0.39459 2 1 cbr 210 ------- 0 0.0 1.0 77 77
+ 0.39625 0 2 cbr 210 ------- 0 0.0 1.0 79 79
- 0.39625 0 2 cbr 210 ------- 0 0.0 1.0 79 79
r 0.39821 2 1 cbr 210 ------- 0 0.0 1.0 75 75
r 0.40209 0 2 cbr 210 ------- 0 0.0 1.0 79 79
+ 0.40209 2 1 cbr 210 ------- 0 0.0 1.0 79 79
- 0.40209 2 1 cbr 210 ------- 0 0.0 1.0 79 79
+ 0.40375 0 2 cbr 210 ------- 0 0.0 1.0 81 81
- 0.40375 0 2 cbr 210 ------- 0 0.0 1.0 81 81
r 0.40571 2 1 cbr 210 ------- 0 0.0 1.0 77 77
r 0.40959 0 2 cbr 210 ------- 0 0.0 1.0 81 81
+ 0.40959 2 1 cbr 210 ------- 0 0.0 1.0 81 81
- 0.40959 2 1 cbr 210 ------- 0 0.0 1.0 81 81
+ 0.41125 0 2 cbr 210 ------- 0 0.0 1.0 83 83
- 0.41125 0 2 cbr 210 ------- 0 0.0 1.0 83 83
r 0.41321 2 1 cbr 210 ------- 0 0.0 1.0 79 79
r 0.41709 0 2 cbr 210 ------- 0 0.0 1.0 83 83
+ 0.41709 2 1 cbr 210 ------- 0 0.0 1.0 83 83
- 0.41709 2 1 cbr 210 ------- 0 0.0 1.0 83 83
+ 0.41875 0 2 cbr 210 ------- 0 0.0 1.0 85 85
- 0.41875 0 2 cbr 210 ------- 0 0.0 1.0 85 85
r 0.42071 2 1 cbr 210 ------- 0 0.0 1.0 81 81
r 0.42459 0 2 cbr 210 ------- 0 0.0 1.0 85 85
+ 0.42459 2 1 cbr 210 ------- 0 0.0 1.0 85 85
- 0.42459 2 1 cbr 210 ------- 0 0.0 1.0 85 85
+ 0.42625 0 2 cbr 210 ------- 0 0.0 1.0 87 87
- 0.42625 0 2 cbr 210 ------- 0 0.0 1.0 87 87
r 0.42821 2 1 cbr 210 ------- 0 0.0 1.0 83 83
r 0.43209 0 2 cbr 210 ------- 0 0.0 1.0 87 87
+ 0.43209 2 1 cbr 210 ------- 0 0.0 1.0 87 87
- 0.43209 2 1 cbr 210 ------- 0 0.0 1.0 87 87
+ 0.43375 0 2 cbr 210 ------- 0 0.0 1.0 89 89
- 0.43375 0 2 cbr 210 ------- 0 0.0 1.0 89 89
r 0.43571 2 1 cbr 210 ------- 0 0.0 1.0 85 85
r 0.43959 0 2 cbr 210 ------- 0 0.0 1.0 89 89
+ 0.43959 2 1 cbr 210 ------- 0 0.0 1.0 89 89
- 0.43959 2 1 cbr 210 ------- 0 0.0 1.0 89 89
+ 0.44125 0 2 cbr 210 ------- 0 0.0 1.0 91 91
- 0.44125 0 2 cbr 210 ------- 0 0.0 1.0 91 91
r 0.44321 2 1 cbr 210 ------- 0 0.0 1.0 87 87
r 0.44709 0 2 cbr 210 ------- 0 0.0 1.0 91 91
+ 0.44709 2 1 cbr 210 ------- 0 0.0 1.0 91 91
- 0.44709 2 1 cbr 210 ------- 0 0.0 1.0 91 91
+ 0.44875 0 2 cbr 210 ------- 0 0.0 1.0 93 93
- 0.44875 0 2 cbr 210 ------- 0 0.0 1.0 93 93
r 0.45071 2 1 cbr 210 ------- 0 0.0 1.0 89 89
r 0.45459 0 2 cbr 210 ------- 0 0.0 1.0 93 93
+ 0.45459 2 1 cbr 210 ------- 0 0.0 1.0 93 93
- 0.45459 2 1 cbr 210 ------- 0 0.0 1.0 93 93
+ 0.45625 0 2 cbr 210 ------- 0 0.0 1.0 95 95
- 0.45625 0 2 cbr 210 ------- 0 0.0 1.0 95 95
r 0.45821 2 1 cbr 210 ------- 0 0.0 1.0 91 91
r 0.46209 0 2 cbr 210 ------- 0 0.0 1.0 95 95
+ 0.46209 2 1 cbr 210 ------- 0 0.0 1.0 95 95
- 0.46209 2 1 cbr 210 ------- 0 0.0 1.0 95 95
+ 0.46375 0 2 cbr 210 ------- 0 0.0 1.0 97 97
- 0.46375 0 2 cbr 210 ------- 0 0.0 1.0 97 97
r 0.46571 2 1 cbr 210 ------- 0 0.0 1.0 93 93
r 0.46959 0 2 cbr 210 ------- 0 0.0 1.0 97 97
+ 0.46959 2 1 cbr 210 ------- 0 0.0 1.0 97 97
- 0.46959 2 1 cbr 210 ------- 0 0.0 1.0 97 97
+ 0.47125 0 2 cbr 210 ------- 0 0.0 1.0 99 99
- 0.47125 0 2 cbr 210 ------- 0 0.0 1.0 99 99
r 0.47321 2 1 cbr 210 ------- 0 0.0 1.0 95 95
r 0.47709 0 2 cbr 210 ------- 0 0.0 1.0 99 99
+ 0.47709 2 1 cbr 210 ------- 0 0.0 1.0 99 99
- 0.47709 2 1 cbr 210 ------- 0 0.0 1.0 99 99
+ 0.47875 0 2 cbr 210 ------- 0 0.0 1.0 101 101
- 0.47875 0 2 cbr 210 ------- 0 0.0 1.0 101 101
r 0.48071 2 1 cbr 210 ------- 0 0.0 1.0 97 97
r 0.48459 0 2 cbr 210 ------- 0 0.0 1.0 101 101
+ 0.48459 2 1 cbr 210 ------- 0 0.0 1.0 101 101
- 0.48459 2 1 cbr 210 ------- 0 0.0 1.0 101 101
+ 0.48625 0 2 cbr 210 ------- 0 0.0 1.0 103 103
- 0.48625 0 2 cbr 210 ------- 0 0.0 1.0 103 103
r 0.48821 2 1 cbr 210 ------- 0 0.0 1.0 99 99
r 0.49209 0 2 cbr 210 ------- 0 0.0 1.0 103 103
+ 0.49209 2 1 cbr 210 ------- 0 0.0 1.0 103 103
- 0.49209 2 1 cbr 210 ------- 0 0.0 1.0 103 103
+ 0.49375 0 2 cbr 210 ------- 0 0.0 1.0 105 105
- 0.49375 0 2 cbr 210 ------- 0 0.0 1.0 105 105
r 0.49571 2 1 cbr 210 ------- 0 0.0 1.0 101 101
r 0.49959 0 2 cbr 210 ------- 0 0.0 1.0 105 105
+ 0.49959 2 1 cbr 210 ------- 0 0.0 1.0 105 105
- 0.49959 2 1 cbr 210 ------- 0 0.0 1.0 105 105
r 0.50321 2 1 cbr 210 ------- 0 0.0 1.0 103 103
r 0.51071 2 1 cbr 210 ------- 0 0.0 1.0 105 105
