+ 0.01 0 1 tcp 540 ------- 2 0.0 3.0 0 0 1 500
- 0.01 0 1 tcp 540 ------- 2 0.0 3.0 0 0 1 500
r 0.011432 0 1 tcp 540 ------- 2 0.0 3.0 0 0 1 500
+ 0.011432 1 2 tcp 540 ------- 2 0.0 3.0 0 0 1 500
- 0.011432 1 2 tcp 540 ------- 2 0.0 3.0 0 0 1 500
r 0.019752 1 2 tcp 540 ------- 2 0.0 3.0 0 0 1 500
+ 0.019752 2 3 tcp 540 ------- 2 0.0 3.0 0 0 1 500
- 0.019752 2 3 tcp 540 ------- 2 0.0 3.0 0 0 1 500
+ 0.02 0 1 tcp 540 ------- 2 0.0 3.0 0 1 2 500
- 0.02 0 1 tcp 540 ------- 2 0.0 3.0 0 1 2 500
r 0.021184 2 3 tcp 540 ------- 2 0.0 3.0 0 0 1 500
r 0.021432 0 1 tcp 540 ------- 2 0.0 3.0 0 1 2 500
+ 0.021432 1 2 tcp 540 ------- 2 0.0 3.0 0 1 2 500
- 0.021432 1 2 tcp 540 ------- 2 0.0 3.0 0 1 2 500
r 0.029752 1 2 tcp 540 ------- 2 0.0 3.0 0 1 2 500
+ 0.029752 2 3 tcp 540 ------- 2 0.0 3.0 0 1 2 500
- 0.029752 2 3 tcp 540 ------- 2 0.0 3.0 0 1 2 500
+ 0.03 0 1 tcp 540 ------- 2 0.0 3.0 0 2 3 500
- 0.03 0 1 tcp 540 ------- 2 0.0 3.0 0 2 3 500
r 0.031184 2 3 tcp 540 ------- 2 0.0 3.0 0 1 2 500
r 0.031432 0 1 tcp 540 ------- 2 0.0 3.0 0 2 3 500
+ 0.031432 1 2 tcp 540 ------- 2 0.0 3.0 0 2 3 500
- 0.031432 1 2 tcp 540 ------- 2 0.0 3.0 0 2 3 500
r 0.039752 1 2 tcp 540 ------- 2 0.0 3.0 0 2 3 500
+ 0.039752 2 3 tcp 540 ------- 2 0.0 3.0 0 2 3 500
- 0.039752 2 3 tcp 540 ------- 2 0.0 3.0 0 2 3 500
+ 0.04 0 1 tcp 540 ------- 2 0.0 3.0 0 3 4 500
- 0.04 0 1 tcp 540 ------- 2 0.0 3.0 0 3 4 500
r 0.041184 2 3 tcp 540 ------- 2 0.0 3.0 0 2 3 500
r 0.041432 0 1 tcp 540 ------- 2 0.0 3.0 0 3 4 500
+ 0.041432 1 2 tcp 540 ------- 2 0.0 3.0 0 3 4 500
- 0.041432 1 2 tcp 540 ------- 2 0.0 3.0 0 3 4 500
r 0.049752 1 2 tcp 540 ------- 2 0.0 3.0 0 3 4 500
+ 0.049752 2 3 tcp 540 ------- 2 0.0 3.0 0 3 4 500
- 0.049752 2 3 tcp 540 ------- 2 0.0 3.0 0 3 4 500
+ 0.05 0 1 tcp 540 ------- 2 0.0 3.0 0 4 5 500
- 0.05 0 1 tcp 540 ------- 2 0.0 3.0 0 4 5 500
r 0.051184 2 3 tcp 540 ------- 2 0.0 3.0 0 3 4 500
r 0.051432 0 1 tcp 540 ------- 2 0.0 3.0 0 4 5 500
+ 0.051432 1 2 tcp 540 ------- 2 0.0 3.0 0 4 5 500
- 0.051432 1 2 tcp 540 ------- 2 0.0 3.0 0 4 5 500
r 0.059752 1 2 tcp 540 ------- 2 0.0 3.0 0 4 5 500
+ 0.059752 2 3 tcp 540 ------- 2 0.0 3.0 0 4 5 500
- 0.059752 2 3 tcp 540 ------- 2 0.0 3.0 0 4 5 500
+ 0.06 0 1 tcp 540 ------- 2 0.0 3.0 0 5 6 500
- 0.06 0 1 tcp 540 ------- 2 0.0 3.0 0 5 6 500
r 0.061184 2 3 tcp 540 ------- 2 0.0 3.0 0 4 5 500
r 0.061432 0 1 tcp 540 ------- 2 0.0 3.0 0 5 6 500
+ 0.061432 1 2 tcp 540 ------- 2 0.0 3.0 0 5 6 500
- 0.061432 1 2 tcp 540 ------- 2 0.0 3.0 0 5 6 500
r 0.069752 1 2 tcp 540 ------- 2 0.0 3.0 0 5 6 500
+ 0.069752 2 3 tcp 540 ------- 2 0.0 3.0 0 5 6 500
- 0.069752 2 3 tcp 540 ------- 2 0.0 3.0 0 5 6 500
+ 0.07 0 1 tcp 540 ------- 2 0.0 3.0 0 6 7 500
- 0.07 0 1 tcp 540 ------- 2 0.0 3.0 0 6 7 500
r 0.071184 2 3 tcp 540 ------- 2 0.0 3.0 0 5 6 500
r 0.071432 0 1 tcp 540 ------- 2 0.0 3.0 0 6 7 500
+ 0.071432 1 2 tcp 540 ------- 2 0.0 3.0 0 6 7 500
- 0.071432 1 2 tcp 540 ------- 2 0.0 3.0 0 6 7 500
r 0.079752 1 2 tcp 540 ------- 2 0.0 3.0 0 6 7 500
+ 0.079752 2 3 tcp 540 ------- 2 0.0 3.0 0 6 7 500
- 0.079752 2 3 tcp 540 ------- 2 0.0 3.0 0 6 7 500
+ 0.08 0 1 tcp 540 ------- 2 0.0 3.0 0 7 8 500
- 0.08 0 1 tcp 540 ------- 2 0.0 3.0 0 7 8 500
r 0.081184 2 3 tcp 540 ------- 2 0.0 3.0 0 6 7 500
r 0.081432 0 1 tcp 540 ------- 2 0.0 3.0 0 7 8 500
+ 0.081432 1 2 tcp 540 ------- 2 0.0 3.0 0 7 8 500
- 0.081432 1 2 tcp 540 ------- 2 0.0 3.0 0 7 8 500
r 0.089752 1 2 tcp 540 ------- 2 0.0 3.0 0 7 8 500
+ 0.089752 2 3 tcp 540 ------- 2 0.0 3.0 0 7 8 500
- 0.089752 2 3 tcp 540 ------- 2 0.0 3.0 0 7 8 500
+ 0.09 0 1 tcp 540 ------- 2 0.0 3.0 0 8 9 500
- 0.09 0 1 tcp 540 ------- 2 0.0 3.0 0 8 9 500
r 0.091184 2 3 tcp 540 ------- 2 0.0 3.0 0 7 8 500
r 0.091432 0 1 tcp 540 ------- 2 0.0 3.0 0 8 9 500
+ 0.091432 1 2 tcp 540 ------- 2 0.0 3.0 0 8 9 500
- 0.091432 1 2 tcp 540 ------- 2 0.0 3.0 0 8 9 500
r 0.099752 1 2 tcp 540 ------- 2 0.0 3.0 0 8 9 500
+ 0.099752 2 3 tcp 540 ------- 2 0.0 3.0 0 8 9 500
- 0.099752 2 3 tcp 540 ------- 2 0.0 3.0 0 8 9 500
+ 0.1 0 1 tcp 540 ------- 2 0.0 3.0 0 9 10 500
- 0.1 0 1 tcp 540 ------- 2 0.0 3.0 0 9 10 500
r 0.101184 2 3 tcp 540 ------- 2 0.0 3.0 0 8 9 500
r 0.101432 0 1 tcp 540 ------- 2 0.0 3.0 0 9 10 500
+ 0.101432 1 2 tcp 540 ------- 2 0.0 3.0 0 9 10 500
- 0.101432 1 2 tcp 540 ------- 2 0.0 3.0 0 9 10 500
r 0.109752 1 2 tcp 540 ------- 2 0.0 3.0 0 9 10 500
+ 0.109752 2 3 tcp 540 ------- 2 0.0 3.0 0 9 10 500
- 0.109752 2 3 tcp 540 ------- 2 0.0 3.0 0 9 10 500
+ 0.11 0 1 tcp 540 ------- 2 0.0 3.0 0 10 11 500
- 0.11 0 1 tcp 540 ------- 2 0.0 3.0 0 10 11 500
r 0.111184 2 3 tcp 540 ------- 2 0.0 3.0 0 9 10 500
r 0.111432 0 1 tcp 540 ------- 2 0.0 3.0 0 10 11 500
+ 0.111432 1 2 tcp 540 ------- 2 0.0 3.0 0 10 11 500
- 0.111432 1 2 tcp 540 ------- 2 0.0 3.0 0 10 11 500
r 0.119752 1 2 tcp 540 ------- 2 0.0 3.0 0 10 11 500
+ 0.119752 2 3 tcp 540 ------- 2 0.0 3.0 0 10 11 500
- 0.119752 2 3 tcp 540 ------- 2 0.0 3.0 0 10 11 500
+ 0.12 0 1 tcp 540 ------- 2 0.0 3.0 0 11 12 500
- 0.12 0 1 tcp 540 ------- 2 0.0 3.0 0 11 12 500
r 0.121184 2 3 tcp 540 ------- 2 0.0 3.0 0 10 11 500
r 0.121432 0 1 tcp 540 ------- 2 0.0 3.0 0 11 12 500
+ 0.121432 1 2 tcp 540 ------- 2 0.0 3.0 0 11 12 500
- 0.121432 1 2 tcp 540 ------- 2 0.0 3.0 0 11 12 500
r 0.129752 1 2 tcp 540 ------- 2 0.0 3.0 0 11 12 500
+ 0.129752 2 3 tcp 540 ------- 2 0.0 3.0 0 11 12 500
- 0.129752 2 3 tcp 540 ------- 2 0.0 3.0 0 11 12 500
+ 0.13 0 1 tcp 540 ------- 2 0.0 3.0 0 12 13 500
- 0.13 0 1 tcp 540 ------- 2 0.0 3.0 0 12 13 500
r 0.131184 2 3 tcp 540 ------- 2 0.0 3.0 0 11 12 500
r 0.131432 0 1 tcp 540 ------- 2 0.0 3.0 0 12 13 500
+ 0.131432 1 2 tcp 540 ------- 2 0.0 3.0 0 12 13 500
- 0.131432 1 2 tcp 540 ------- 2 0.0 3.0 0 12 13 500
r 0.139752 1 2 tcp 540 ------- 2 0.0 3.0 0 12 13 500
+ 0.139752 2 3 tcp 540 ------- 2 0.0 3.0 0 12 13 500
- 0.139752 2 3 tcp 540 ------- 2 0.0 3.0 0 12 13 500
+ 0.14 0 1 tcp 540 ------- 2 0.0 3.0 0 13 14 500
- 0.14 0 1 tcp 540 ------- 2 0.0 3.0 0 13 14 500
r 0.141184 2 3 tcp 540 ------- 2 0.0 3.0 0 12 13 500
r 0.141432 0 1 tcp 540 ------- 2 0.0 3.0 0 13 14 500
+ 0.141432 1 2 tcp 540 ------- 2 0.0 3.0 0 13 14 500
- 0.141432 1 2 tcp 540 ------- 2 0.0 3.0 0 13 14 500
r 0.149752 1 2 tcp 540 ------- 2 0.0 3.0 0 13 14 500
+ 0.149752 2 3 tcp 540 ------- 2 0.0 3.0 0 13 14 500
- 0.149752 2 3 tcp 540 ------- 2 0.0 3.0 0 13 14 500
+ 0.15 0 1 tcp 540 ------- 2 0.0 3.0 0 14 15 500
- 0.15 0 1 tcp 540 ------- 2 0.0 3.0 0 14 15 500
r 0.151184 2 3 tcp 540 ------- 2 0.0 3.0 0 13 14 500
r 0.151432 0 1 tcp 540 ------- 2 0.0 3.0 0 14 15 500
+ 0.151432 1 2 tcp 540 ------- 2 0.0 3.0 0 14 15 500
- 0.151432 1 2 tcp 540 ------- 2 0.0 3.0 0 14 15 500
r 0.159752 1 2 tcp 540 ------- 2 0.0 3.0 0 14 15 500
+ 0.159752 2 3 tcp 540 ------- 2 0.0 3.0 0 14 15 500
- 0.159752 2 3 tcp 540 ------- 2 0.0 3.0 0 14 15 500
+ 0.16 0 1 tcp 540 ------- 2 0.0 3.0 0 15 16 500
- 0.16 0 1 tcp 540 ------- 2 0.0 3.0 0 15 16 500
r 0.161184 2 3 tcp 540 ------- 2 0.0 3.0 0 14 15 500
r 0.161432 0 1 tcp 540 ------- 2 0.0 3.0 0 15 16 500
+ 0.161432 1 2 tcp 540 ------- 2 0.0 3.0 0 15 16 500
- 0.161432 1 2 tcp 540 ------- 2 0.0 3.0 0 15 16 500
r 0.169752 1 2 tcp 540 ------- 2 0.0 3.0 0 15 16 500
+ 0.169752 2 3 tcp 540 ------- 2 0.0 3.0 0 15 16 500
- 0.169752 2 3 tcp 540 ------- 2 0.0 3.0 0 15 16 500
+ 0.17 0 1 tcp 540 ------- 2 0.0 3.0 0 16 17 500
- 0.17 0 1 tcp 540 ------- 2 0.0 3.0 0 16 17 500
r 0.171184 2 3 tcp 540 ------- 2 0.0 3.0 0 15 16 500
r 0.171432 0 1 tcp 540 ------- 2 0.0 3.0 0 16 17 500
+ 0.171432 1 2 tcp 540 ------- 2 0.0 3.0 0 16 17 500
- 0.171432 1 2 tcp 540 ------- 2 0.0 3.0 0 16 17 500
r 0.179752 1 2 tcp 540 ------- 2 0.0 3.0 0 16 17 500
+ 0.179752 2 3 tcp 540 ------- 2 0.0 3.0 0 16 17 500
- 0.179752 2 3 tcp 540 ------- 2 0.0 3.0 0 16 17 500
+ 0.18 0 1 tcp 540 ------- 2 0.0 3.0 0 17 18 500
- 0.18 0 1 tcp 540 ------- 2 0.0 3.0 0 17 18 500
r 0.181184 2 3 tcp 540 ------- 2 0.0 3.0 0 16 17 500
r 0.181432 0 1 tcp 540 ------- 2 0.0 3.0 0 17 18 500
+ 0.181432 1 2 tcp 540 ------- 2 0.0 3.0 0 17 18 500
- 0.181432 1 2 tcp 540 ------- 2 0.0 3.0 0 17 18 500
r 0.189752 1 2 tcp 540 ------- 2 0.0 3.0 0 17 18 500
+ 0.189752 2 3 tcp 540 ------- 2 0.0 3.0 0 17 18 500
- 0.189752 2 3 tcp 540 ------- 2 0.0 3.0 0 17 18 500
+ 0.19 0 1 tcp 540 ------- 2 0.0 3.0 0 18 19 500
- 0.19 0 1 tcp 540 ------- 2 0.0 3.0 0 18 19 500
r 0.191184 2 3 tcp 540 ------- 2 0.0 3.0 0 17 18 500
r 0.191432 0 1 tcp 540 ------- 2 0.0 3.0 0 18 19 500
+ 0.191432 1 2 tcp 540 ------- 2 0.0 3.0 0 18 19 500
- 0.191432 1 2 tcp 540 ------- 2 0.0 3.0 0 18 19 500
r 0.199752 1 2 tcp 540 ------- 2 0.0 3.0 0 18 19 500
+ 0.199752 2 3 tcp 540 ------- 2 0.0 3.0 0 18 19 500
- 0.199752 2 3 tcp 540 ------- 2 0.0 3.0 0 18 19 500
+ 0.2 0 1 tcp 540 ------- 2 0.0 3.0 0 19 20 500
- 0.2 0 1 tcp 540 ------- 2 0.0 3.0 0 19 20 500
r 0.201184 2 3 tcp 540 ------- 2 0.0 3.0 0 18 19 500
r 0.201432 0 1 tcp 540 ------- 2 0.0 3.0 0 19 20 500
+ 0.201432 1 2 tcp 540 ------- 2 0.0 3.0 0 19 20 500
- 0.201432 1 2 tcp 540 ------- 2 0.0 3.0 0 19 20 500
r 0.209752 1 2 tcp 540 ------- 2 0.0 3.0 0 19 20 500
+ 0.209752 2 3 tcp 540 ------- 2 0.0 3.0 0 19 20 500
- 0.209752 2 3 tcp 540 ------- 2 0.0 3.0 0 19 20 500
+ 0.21 0 1 tcp 540 ------- 2 0.0 3.0 0 20 21 500
- 0.21 0 1 tcp 540 ------- 2 0.0 3.0 0 20 21 500
r 0.211184 2 3 tcp 540 ------- 2 0.0 3.0 0 19 20 500
r 0.211432 0 1 tcp 540 ------- 2 0.0 3.0 0 20 21 500
+ 0.211432 1 2 tcp 540 ------- 2 0.0 3.0 0 20 21 500
- 0.211432 1 2 tcp 540 ------- 2 0.0 3.0 0 20 21 500
r 0.219752 1 2 tcp 540 ------- 2 0.0 3.0 0 20 21 500
+ 0.219752 2 3 tcp 540 ------- 2 0.0 3.0 0 20 21 500
- 0.219752 2 3 tcp 540 ------- 2 0.0 3.0 0 20 21 500
+ 0.22 0 1 tcp 540 ------- 2 0.0 3.0 0 21 22 500
- 0.22 0 1 tcp 540 ------- 2 0.0 3.0 0 21 22 500
r 0.221184 2 3 tcp 540 ------- 2 0.0 3.0 0 20 21 500
r 0.221432 0 1 tcp 540 ------- 2 0.0 3.0 0 21 22 500
+ 0.221432 1 2 tcp 540 ------- 2 0.0 3.0 0 21 22 500
- 0.221432 1 2 tcp 540 ------- 2 0.0 3.0 0 21 22 500
r 0.229752 1 2 tcp 540 ------- 2 0.0 3.0 0 21 22 500
+ 0.229752 2 3 tcp 540 ------- 2 0.0 3.0 0 21 22 500
- 0.229752 2 3 tcp 540 ------- 2 0.0 3.0 0 21 22 500
+ 0.23 0 1 tcp 540 ------- 2 0.0 3.0 0 22 23 500
- 0.23 0 1 tcp 540 ------- 2 0.0 3.0 0 22 23 500
r 0.231184 2 3 tcp 540 ------- 2 0.0 3.0 0 21 22 500
r 0.231432 0 1 tcp 540 ------- 2 0.0 3.0 0 22 23 500
+ 0.231432 1 2 tcp 540 ------- 2 0.0 3.0 0 22 23 500
- 0.231432 1 2 tcp 540 ------- 2 0.0 3.0 0 22 23 500
r 0.239752 1 2 tcp 540 ------- 2 0.0 3.0 0 22 23 500
+ 0.239752 2 3 tcp 540 ------- 2 0.0 3.0 0 22 23 500
- 0.239752 2 3 tcp 540 ------- 2 0.0 3.0 0 22 23 500
+ 0.24 0 1 tcp 540 ------- 2 0.0 3.0 0 23 24 500
- 0.24 0 1 tcp 540 ------- 2 0.0 3.0 0 23 24 500
r 0.241184 2 3 tcp 540 ------- 2 0.0 3.0 0 22 23 500
r 0.241432 0 1 tcp 540 ------- 2 0.0 3.0 0 23 24 500
+ 0.241432 1 2 tcp 540 ------- 2 0.0 3.0 0 23 24 500
- 0.241432 1 2 tcp 540 ------- 2 0.0 3.0 0 23 24 500
r 0.249752 1 2 tcp 540 ------- 2 0.0 3.0 0 23 24 500
+ 0.249752 2 3 tcp 540 ------- 2 0.0 3.0 0 23 24 500
- 0.249752 2 3 tcp 540 ------- 2 0.0 3.0 0 23 24 500
+ 0.25 0 1 tcp 540 ------- 2 0.0 3.0 0 24 25 500
- 0.25 0 1 tcp 540 ------- 2 0.0 3.0 0 24 25 500
r 0.251184 2 3 tcp 540 ------- 2 0.0 3.0 0 23 24 500
r 0.251432 0 1 tcp 540 ------- 2 0.0 3.0 0 24 25 500
+ 0.251432 1 2 tcp 540 ------- 2 0.0 3.0 0 24 25 500
- 0.251432 1 2 tcp 540 ------- 2 0.0 3.0 0 24 25 500
r 0.259752 1 2 tcp 540 ------- 2 0.0 3.0 0 24 25 500
+ 0.259752 2 3 tcp 540 ------- 2 0.0 3.0 0 24 25 500
- 0.259752 2 3 tcp 540 ------- 2 0.0 3.0 0 24 25 500
+ 0.26 0 1 tcp 540 ------- 2 0.0 3.0 0 25 26 500
- 0.26 0 1 tcp 540 ------- 2 0.0 3.0 0 25 26 500
r 0.261184 2 3 tcp 540 ------- 2 0.0 3.0 0 24 25 500
r 0.261432 0 1 tcp 540 ------- 2 0.0 3.0 0 25 26 500
+ 0.261432 1 2 tcp 540 ------- 2 0.0 3.0 0 25 26 500
- 0.261432 1 2 tcp 540 ------- 2 0.0 3.0 0 25 26 500
r 0.269752 1 2 tcp 540 ------- 2 0.0 3.0 0 25 26 500
+ 0.269752 2 3 tcp 540 ------- 2 0.0 3.0 0 25 26 500
- 0.269752 2 3 tcp 540 ------- 2 0.0 3.0 0 25 26 500
+ 0.27 0 1 tcp 540 ------- 2 0.0 3.0 0 26 27 500
- 0.27 0 1 tcp 540 ------- 2 0.0 3.0 0 26 27 500
r 0.271184 2 3 tcp 540 ------- 2 0.0 3.0 0 25 26 500
r 0.271432 0 1 tcp 540 ------- 2 0.0 3.0 0 26 27 500
+ 0.271432 1 2 tcp 540 ------- 2 0.0 3.0 0 26 27 500
- 0.271432 1 2 tcp 540 ------- 2 0.0 3.0 0 26 27 500
r 0.279752 1 2 tcp 540 ------- 2 0.0 3.0 0 26 27 500
+ 0.279752 2 3 tcp 540 ------- 2 0.0 3.0 0 26 27 500
- 0.279752 2 3 tcp 540 ------- 2 0.0 3.0 0 26 27 500
+ 0.28 0 1 tcp 540 ------- 2 0.0 3.0 0 27 28 500
- 0.28 0 1 tcp 540 ------- 2 0.0 3.0 0 27 28 500
r 0.281184 2 3 tcp 540 ------- 2 0.0 3.0 0 26 27 500
r 0.281432 0 1 tcp 540 ------- 2 0.0 3.0 0 27 28 500
+ 0.281432 1 2 tcp 540 ------- 2 0.0 3.0 0 27 28 500
- 0.281432 1 2 tcp 540 ------- 2 0.0 3.0 0 27 28 500
r 0.289752 1 2 tcp 540 ------- 2 0.0 3.0 0 27 28 500
+ 0.289752 2 3 tcp 540 ------- 2 0.0 3.0 0 27 28 500
- 0.289752 2 3 tcp 540 ------- 2 0.0 3.0 0 27 28 500
+ 0.29 0 1 tcp 540 ------- 2 0.0 3.0 0 28 29 500
- 0.29 0 1 tcp 540 ------- 2 0.0 3.0 0 28 29 500
r 0.291184 2 3 tcp 540 ------- 2 0.0 3.0 0 27 28 500
r 0.291432 0 1 tcp 540 ------- 2 0.0 3.0 0 28 29 500
+ 0.291432 1 2 tcp 540 ------- 2 0.0 3.0 0 28 29 500
- 0.291432 1 2 tcp 540 ------- 2 0.0 3.0 0 28 29 500
r 0.299752 1 2 tcp 540 ------- 2 0.0 3.0 0 28 29 500
+ 0.299752 2 3 tcp 540 ------- 2 0.0 3.0 0 28 29 500
- 0.299752 2 3 tcp 540 ------- 2 0.0 3.0 0 28 29 500
+ 0.3 0 1 tcp 540 ------- 2 0.0 3.0 0 29 30 500
- 0.3 0 1 tcp 540 ------- 2 0.0 3.0 0 29 30 500
r 0.301184 2 3 tcp 540 ------- 2 0.0 3.0 0 28 29 500
r 0.301432 0 1 tcp 540 ------- 2 0.0 3.0 0 29 30 500
+ 0.301432 1 2 tcp 540 ------- 2 0.0 3.0 0 29 30 500
- 0.301432 1 2 tcp 540 ------- 2 0.0 3.0 0 29 30 500
r 0.309752 1 2 tcp 540 ------- 2 0.0 3.0 0 29 30 500
+ 0.309752 2 3 tcp 540 ------- 2 0.0 3.0 0 29 30 500
- 0.309752 2 3 tcp 540 ------- 2 0.0 3.0 0 29 30 500
+ 0.31 0 1 tcp 540 ------- 2 0.0 3.0 0 30 31 500
- 0.31 0 1 tcp 540 ------- 2 0.0 3.0 0 30 31 500
r 0.311184 2 3 tcp 540 ------- 2 0.0 3.0 0 29 30 500
r 0.311432 0 1 tcp 540 ------- 2 0.0 3.0 0 30 31 500
+ 0.311432 1 2 tcp 540 ------- 2 0.0 3.0 0 30 31 500
- 0.311432 1 2 tcp 540 ------- 2 0.0 3.0 0 30 31 500
r 0.319752 1 2 tcp 540 ------- 2 0.0 3.0 0 30 31 500
+ 0.319752 2 3 tcp 540 ------- 2 0.0 3.0 0 30 31 500
- 0.319752 2 3 tcp 540 ------- 2 0.0 3.0 0 30 31 500
+ 0.32 0 1 tcp 540 ------- 2 0.0 3.0 0 31 32 500
- 0.32 0 1 tcp 540 ------- 2 0.0 3.0 0 31 32 500
r 0.321184 2 3 tcp 540 ------- 2 0.0 3.0 0 30 31 500
r 0.321432 0 1 tcp 540 ------- 2 0.0 3.0 0 31 32 500
+ 0.321432 1 2 tcp 540 ------- 2 0.0 3.0 0 31 32 500
- 0.321432 1 2 tcp 540 ------- 2 0.0 3.0 0 31 32 500
r 0.329752 1 2 tcp 540 ------- 2 0.0 3.0 0 31 32 500
+ 0.329752 2 3 tcp 540 ------- 2 0.0 3.0 0 31 32 500
- 0.329752 2 3 tcp 540 ------- 2 0.0 3.0 0 31 32 500
+ 0.33 0 1 tcp 540 ------- 2 0.0 3.0 0 32 33 500
- 0.33 0 1 tcp 540 ------- 2 0.0 3.0 0 32 33 500
r 0.331184 2 3 tcp 540 ------- 2 0.0 3.0 0 31 32 500
r 0.331432 0 1 tcp 540 ------- 2 0.0 3.0 0 32 33 500
+ 0.331432 1 2 tcp 540 ------- 2 0.0 3.0 0 32 33 500
- 0.331432 1 2 tcp 540 ------- 2 0.0 3.0 0 32 33 500
r 0.339752 1 2 tcp 540 ------- 2 0.0 3.0 0 32 33 500
+ 0.339752 2 3 tcp 540 ------- 2 0.0 3.0 0 32 33 500
- 0.339752 2 3 tcp 540 ------- 2 0.0 3.0 0 32 33 500
+ 0.34 0 1 tcp 540 ------- 2 0.0 3.0 0 33 34 500
- 0.34 0 1 tcp 540 ------- 2 0.0 3.0 0 33 34 500
r 0.341184 2 3 tcp 540 ------- 2 0.0 3.0 0 32 33 500
r 0.341432 0 1 tcp 540 ------- 2 0.0 3.0 0 33 34 500
+ 0.341432 1 2 tcp 540 ------- 2 0.0 3.0 0 33 34 500
- 0.341432 1 2 tcp 540 ------- 2 0.0 3.0 0 33 34 500
r 0.349752 1 2 tcp 540 ------- 2 0.0 3.0 0 33 34 500
+ 0.349752 2 3 tcp 540 ------- 2 0.0 3.0 0 33 34 500
- 0.349752 2 3 tcp 540 ------- 2 0.0 3.0 0 33 34 500
+ 0.35 0 1 tcp 540 ------- 2 0.0 3.0 0 34 35 500
- 0.35 0 1 tcp 540 ------- 2 0.0 3.0 0 34 35 500
r 0.351184 2 3 tcp 540 ------- 2 0.0 3.0 0 33 34 500
r 0.351432 0 1 tcp 540 ------- 2 0.0 3.0 0 34 35 500
+ 0.351432 1 2 tcp 540 ------- 2 0.0 3.0 0 34 35 500
- 0.351432 1 2 tcp 540 ------- 2 0.0 3.0 0 34 35 500
r 0.359752 1 2 tcp 540 ------- 2 0.0 3.0 0 34 35 500
+ 0.359752 2 3 tcp 540 ------- 2 0.0 3.0 0 34 35 500
- 0.359752 2 3 tcp 540 ------- 2 0.0 3.0 0 34 35 500
+ 0.36 0 1 tcp 540 ------- 2 0.0 3.0 0 35 36 500
- 0.36 0 1 tcp 540 ------- 2 0.0 3.0 0 35 36 500
r 0.361184 2 3 tcp 540 ------- 2 0.0 3.0 0 34 35 500
r 0.361432 0 1 tcp 540 ------- 2 0.0 3.0 0 35 36 500
+ 0.361432 1 2 tcp 540 ------- 2 0.0 3.0 0 35 36 500
- 0.361432 1 2 tcp 540 ------- 2 0.0 3.0 0 35 36 500
r 0.369752 1 2 tcp 540 ------- 2 0.0 3.0 0 35 36 500
+ 0.369752 2 3 tcp 540 ------- 2 0.0 3.0 0 35 36 500
- 0.369752 2 3 tcp 540 ------- 2 0.0 3.0 0 35 36 500
+ 0.37 0 1 tcp 540 ------- 2 0.0 3.0 0 36 37 500
- 0.37 0 1 tcp 540 ------- 2 0.0 3.0 0 36 37 500
r 0.371184 2 3 tcp 540 ------- 2 0.0 3.0 0 35 36 500
r 0.371432 0 1 tcp 540 ------- 2 0.0 3.0 0 36 37 500
+ 0.371432 1 2 tcp 540 ------- 2 0.0 3.0 0 36 37 500
- 0.371432 1 2 tcp 540 ------- 2 0.0 3.0 0 36 37 500
r 0.379752 1 2 tcp 540 ------- 2 0.0 3.0 0 36 37 500
+ 0.379752 2 3 tcp 540 ------- 2 0.0 3.0 0 36 37 500
- 0.379752 2 3 tcp 540 ------- 2 0.0 3.0 0 36 37 500
+ 0.38 0 1 tcp 540 ------- 2 0.0 3.0 0 37 38 500
- 0.38 0 1 tcp 540 ------- 2 0.0 3.0 0 37 38 500
r 0.381184 2 3 tcp 540 ------- 2 0.0 3.0 0 36 37 500
r 0.381432 0 1 tcp 540 ------- 2 0.0 3.0 0 37 38 500
+ 0.381432 1 2 tcp 540 ------- 2 0.0 3.0 0 37 38 500
- 0.381432 1 2 tcp 540 ------- 2 0.0 3.0 0 37 38 500
r 0.389752 1 2 tcp 540 ------- 2 0.0 3.0 0 37 38 500
+ 0.389752 2 3 tcp 540 ------- 2 0.0 3.0 0 37 38 500
- 0.389752 2 3 tcp 540 ------- 2 0.0 3.0 0 37 38 500
+ 0.39 0 1 tcp 540 ------- 2 0.0 3.0 0 38 39 500
- 0.39 0 1 tcp 540 ------- 2 0.0 3.0 0 38 39 500
r 0.391184 2 3 tcp 540 ------- 2 0.0 3.0 0 37 38 500
r 0.391432 0 1 tcp 540 ------- 2 0.0 3.0 0 38 39 500
+ 0.391432 1 2 tcp 540 ------- 2 0.0 3.0 0 38 39 500
- 0.391432 1 2 tcp 540 ------- 2 0.0 3.0 0 38 39 500
r 0.399752 1 2 tcp 540 ------- 2 0.0 3.0 0 38 39 500
+ 0.399752 2 3 tcp 540 ------- 2 0.0 3.0 0 38 39 500
- 0.399752 2 3 tcp 540 ------- 2 0.0 3.0 0 38 39 500
+ 0.4 0 1 tcp 540 ------- 2 0.0 3.0 0 39 40 500
- 0.4 0 1 tcp 540 ------- 2 0.0 3.0 0 39 40 500
r 0.401184 2 3 tcp 540 ------- 2 0.0 3.0 0 38 39 500
r 0.401432 0 1 tcp 540 ------- 2 0.0 3.0 0 39 40 500
+ 0.401432 1 2 tcp 540 ------- 2 0.0 3.0 0 39 40 500
- 0.401432 1 2 tcp 540 ------- 2 0.0 3.0 0 39 40 500
r 0.409752 1 2 tcp 540 ------- 2 0.0 3.0 0 39 40 500
+ 0.409752 2 3 tcp 540 ------- 2 0.0 3.0 0 39 40 500
- 0.409752 2 3 tcp 540 ------- 2 0.0 3.0 0 39 40 500
+ 0.41 0 1 tcp 540 ------- 2 0.0 3.0 0 40 41 500
- 0.41 0 1 tcp 540 ------- 2 0.0 3.0 0 40 41 500
r 0.411184 2 3 tcp 540 ------- 2 0.0 3.0 0 39 40 500
r 0.411432 0 1 tcp 540 ------- 2 0.0 3.0 0 40 41 500
+ 0.411432 1 2 tcp 540 ------- 2 0.0 3.0 0 40 41 500
- 0.411432 1 2 tcp 540 ------- 2 0.0 3.0 0 40 41 500
r 0.419752 1 2 tcp 540 ------- 2 0.0 3.0 0 40 41 500
+ 0.419752 2 3 tcp 540 ------- 2 0.0 3.0 0 40 41 500
- 0.419752 2 3 tcp 540 ------- 2 0.0 3.0 0 40 41 500
+ 0.42 0 1 tcp 540 ------- 2 0.0 3.0 0 41 42 500
- 0.42 0 1 tcp 540 ------- 2 0.0 3.0 0 41 42 500
r 0.421184 2 3 tcp 540 ------- 2 0.0 3.0 0 40 41 500
r 0.421432 0 1 tcp 540 ------- 2 0.0 3.0 0 41 42 500
+ 0.421432 1 2 tcp 540 ------- 2 0.0 3.0 0 41 42 500
- 0.421432 1 2 tcp 540 ------- 2 0.0 3.0 0 41 42 500
r 0.429752 1 2 tcp 540 ------- 2 0.0 3.0 0 41 42 500
+ 0.429752 2 3 tcp 540 ------- 2 0.0 3.0 0 41 42 500
- 0.429752 2 3 tcp 540 ------- 2 0.0 3.0 0 41 42 500
+ 0.43 0 1 tcp 540 ------- 2 0.0 3.0 0 42 43 500
- 0.43 0 1 tcp 540 ------- 2 0.0 3.0 0 42 43 500
r 0.431184 2 3 tcp 540 ------- 2 0.0 3.0 0 41 42 500
r 0.431432 0 1 tcp 540 ------- 2 0.0 3.0 0 42 43 500
+ 0.431432 1 2 tcp 540 ------- 2 0.0 3.0 0 42 43 500
- 0.431432 1 2 tcp 540 ------- 2 0.0 3.0 0 42 43 500
r 0.439752 1 2 tcp 540 ------- 2 0.0 3.0 0 42 43 500
+ 0.439752 2 3 tcp 540 ------- 2 0.0 3.0 0 42 43 500
- 0.439752 2 3 tcp 540 ------- 2 0.0 3.0 0 42 43 500
+ 0.44 0 1 tcp 540 ------- 2 0.0 3.0 0 43 44 500
- 0.44 0 1 tcp 540 ------- 2 0.0 3.0 0 43 44 500
r 0.441184 2 3 tcp 540 ------- 2 0.0 3.0 0 42 43 500
r 0.441432 0 1 tcp 540 ------- 2 0.0 3.0 0 43 44 500
+ 0.441432 1 2 tcp 540 ------- 2 0.0 3.0 0 43 44 500
- 0.441432 1 2 tcp 540 ------- 2 0.0 3.0 0 43 44 500
r 0.449752 1 2 tcp 540 ------- 2 0.0 3.0 0 43 44 500
+ 0.449752 2 3 tcp 540 ------- 2 0.0 3.0 0 43 44 500
- 0.449752 2 3 tcp 540 ------- 2 0.0 3.0 0 43 44 500
+ 0.45 0 1 tcp 540 ------- 2 0.0 3.0 0 44 45 500
- 0.45 0 1 tcp 540 ------- 2 0.0 3.0 0 44 45 500
r 0.451184 2 3 tcp 540 ------- 2 0.0 3.0 0 43 44 500
r 0.451432 0 1 tcp 540 ------- 2 0.0 3.0 0 44 45 500
+ 0.451432 1 2 tcp 540 ------- 2 0.0 3.0 0 44 45 500
- 0.451432 1 2 tcp 540 ------- 2 0.0 3.0 0 44 45 500
r 0.459752 1 2 tcp 540 ------- 2 0.0 3.0 0 44 45 500
+ 0.459752 2 3 tcp 540 ------- 2 0.0 3.0 0 44 45 500
- 0.459752 2 3 tcp 540 ------- 2 0.0 3.0 0 44 45 500
+ 0.46 0 1 tcp 540 ------- 2 0.0 3.0 0 45 46 500
- 0.46 0 1 tcp 540 ------- 2 0.0 3.0 0 45 46 500
r 0.461184 2 3 tcp 540 ------- 2 0.0 3.0 0 44 45 500
r 0.461432 0 1 tcp 540 ------- 2 0.0 3.0 0 45 46 500
+ 0.461432 1 2 tcp 540 ------- 2 0.0 3.0 0 45 46 500
- 0.461432 1 2 tcp 540 ------- 2 0.0 3.0 0 45 46 500
r 0.469752 1 2 tcp 540 ------- 2 0.0 3.0 0 45 46 500
+ 0.469752 2 3 tcp 540 ------- 2 0.0 3.0 0 45 46 500
- 0.469752 2 3 tcp 540 ------- 2 0.0 3.0 0 45 46 500
+ 0.47 0 1 tcp 540 ------- 2 0.0 3.0 0 46 47 500
- 0.47 0 1 tcp 540 ------- 2 0.0 3.0 0 46 47 500
r 0.471184 2 3 tcp 540 ------- 2 0.0 3.0 0 45 46 500
r 0.471432 0 1 tcp 540 ------- 2 0.0 3.0 0 46 47 500
+ 0.471432 1 2 tcp 540 ------- 2 0.0 3.0 0 46 47 500
- 0.471432 1 2 tcp 540 ------- 2 0.0 3.0 0 46 47 500
r 0.479752 1 2 tcp 540 ------- 2 0.0 3.0 0 46 47 500
+ 0.479752 2 3 tcp 540 ------- 2 0.0 3.0 0 46 47 500
- 0.479752 2 3 tcp 540 ------- 2 0.0 3.0 0 46 47 500
+ 0.48 0 1 tcp 540 ------- 2 0.0 3.0 0 47 48 500
- 0.48 0 1 tcp 540 ------- 2 0.0 3.0 0 47 48 500
r 0.481184 2 3 tcp 540 ------- 2 0.0 3.0 0 46 47 500
r 0.481432 0 1 tcp 540 ------- 2 0.0 3.0 0 47 48 500
+ 0.481432 1 2 tcp 540 ------- 2 0.0 3.0 0 47 48 500
- 0.481432 1 2 tcp 540 ------- 2 0.0 3.0 0 47 48 500
r 0.489752 1 2 tcp 540 ------- 2 0.0 3.0 0 47 48 500
+ 0.489752 2 3 tcp 540 ------- 2 0.0 3.0 0 47 48 500
- 0.489752 2 3 tcp 540 ------- 2 0.0 3.0 0 47 48 500
+ 0.49 0 1 tcp 540 ------- 2 0.0 3.0 0 48 49 500
- 0.49 0 1 tcp 540 ------- 2 0.0 3.0 0 48 49 500
r 0.491184 2 3 tcp 540 ------- 2 0.0 3.0 0 47 48 500
r 0.491432 0 1 tcp 540 ------- 2 0.0 3.0 0 48 49 500
+ 0.491432 1 2 tcp 540 ------- 2 0.0 3.0 0 48 49 500
- 0.491432 1 2 tcp 540 ------- 2 0.0 3.0 0 48 49 500
r 0.499752 1 2 tcp 540 ------- 2 0.0 3.0 0 48 49 500
+ 0.499752 2 3 tcp 540 ------- 2 0.0 3.0 0 48 49 500
- 0.499752 2 3 tcp 540 ------- 2 0.0 3.0 0 48 49 500
+ 0.5 0 1 tcp 540 ------- 2 0.0 3.0 0 49 50 500
- 0.5 0 1 tcp 540 ------- 2 0.0 3.0 0 49 50 500
r 0.501184 2 3 tcp 540 ------- 2 0.0 3.0 0 48 49 500
r 0.501432 0 1 tcp 540 ------- 2 0.0 3.0 0 49 50 500
+ 0.501432 1 2 tcp 540 ------- 2 0.0 3.0 0 49 50 500
- 0.501432 1 2 tcp 540 ------- 2 0.0 3.0 0 49 50 500
r 0.509752 1 2 tcp 540 ------- 2 0.0 3.0 0 49 50 500
+ 0.509752 2 3 tcp 540 ------- 2 0.0 3.0 0 49 50 500
- 0.509752 2 3 tcp 540 ------- 2 0.0 3.0 0 49 50 500
+ 0.51 0 1 tcp 540 ------- 2 0.0 3.0 0 50 51 500
- 0.51 0 1 tcp 540 ------- 2 0.0 3.0 0 50 51 500
r 0.511184 2 3 tcp 540 ------- 2 0.0 3.0 0 49 50 500
r 0.511432 0 1 tcp 540 ------- 2 0.0 3.0 0 50 51 500
+ 0.511432 1 2 tcp 540 ------- 2 0.0 3.0 0 50 51 500
- 0.511432 1 2 tcp 540 ------- 2 0.0 3.0 0 50 51 500
r 0.519752 1 2 tcp 540 ------- 2 0.0 3.0 0 50 51 500
+ 0.519752 2 3 tcp 540 ------- 2 0.0 3.0 0 50 51 500
- 0.519752 2 3 tcp 540 ------- 2 0.0 3.0 0 50 51 500
+ 0.52 0 1 tcp 540 ------- 2 0.0 3.0 0 51 52 500
- 0.52 0 1 tcp 540 ------- 2 0.0 3.0 0 51 52 500
r 0.521184 2 3 tcp 540 ------- 2 0.0 3.0 0 50 51 500
r 0.521432 0 1 tcp 540 ------- 2 0.0 3.0 0 51 52 500
+ 0.521432 1 2 tcp 540 ------- 2 0.0 3.0 0 51 52 500
- 0.521432 1 2 tcp 540 ------- 2 0.0 3.0 0 51 52 500
r 0.529752 1 2 tcp 540 ------- 2 0.0 3.0 0 51 52 500
+ 0.529752 2 3 tcp 540 ------- 2 0.0 3.0 0 51 52 500
- 0.529752 2 3 tcp 540 ------- 2 0.0 3.0 0 51 52 500
+ 0.53 0 1 tcp 540 ------- 2 0.0 3.0 0 52 53 500
- 0.53 0 1 tcp 540 ------- 2 0.0 3.0 0 52 53 500
r 0.531184 2 3 tcp 540 ------- 2 0.0 3.0 0 51 52 500
r 0.531432 0 1 tcp 540 ------- 2 0.0 3.0 0 52 53 500
+ 0.531432 1 2 tcp 540 ------- 2 0.0 3.0 0 52 53 500
- 0.531432 1 2 tcp 540 ------- 2 0.0 3.0 0 52 53 500
r 0.539752 1 2 tcp 540 ------- 2 0.0 3.0 0 52 53 500
+ 0.539752 2 3 tcp 540 ------- 2 0.0 3.0 0 52 53 500
- 0.539752 2 3 tcp 540 ------- 2 0.0 3.0 0 52 53 500
+ 0.54 0 1 tcp 540 ------- 2 0.0 3.0 0 53 54 500
- 0.54 0 1 tcp 540 ------- 2 0.0 3.0 0 53 54 500
r 0.541184 2 3 tcp 540 ------- 2 0.0 3.0 0 52 53 500
r 0.541432 0 1 tcp 540 ------- 2 0.0 3.0 0 53 54 500
+ 0.541432 1 2 tcp 540 ------- 2 0.0 3.0 0 53 54 500
- 0.541432 1 2 tcp 540 ------- 2 0.0 3.0 0 53 54 500
r 0.549752 1 2 tcp 540 ------- 2 0.0 3.0 0 53 54 500
+ 0.549752 2 3 tcp 540 ------- 2 0.0 3.0 0 53 54 500
- 0.549752 2 3 tcp 540 ------- 2 0.0 3.0 0 53 54 500
+ 0.55 0 1 tcp 540 ------- 2 0.0 3.0 0 54 55 500
- 0.55 0 1 tcp 540 ------- 2 0.0 3.0 0 54 55 500
r 0.551184 2 3 tcp 540 ------- 2 0.0 3.0 0 53 54 500
r 0.551432 0 1 tcp 540 ------- 2 0.0 3.0 0 54 55 500
+ 0.551432 1 2 tcp 540 ------- 2 0.0 3.0 0 54 55 500
- 0.551432 1 2 tcp 540 ------- 2 0.0 3.0 0 54 55 500
r 0.559752 1 2 tcp 540 ------- 2 0.0 3.0 0 54 55 500
+ 0.559752 2 3 tcp 540 ------- 2 0.0 3.0 0 54 55 500
- 0.559752 2 3 tcp 540 ------- 2 0.0 3.0 0 54 55 500
+ 0.56 0 1 tcp 540 ------- 2 0.0 3.0 0 55 56 500
- 0.56 0 1 tcp 540 ------- 2 0.0 3.0 0 55 56 500
r 0.561184 2 3 tcp 540 ------- 2 0.0 3.0 0 54 55 500
r 0.561432 0 1 tcp 540 ------- 2 0.0 3.0 0 55 56 500
+ 0.561432 1 2 tcp 540 ------- 2 0.0 3.0 0 55 56 500
- 0.561432 1 2 tcp 540 ------- 2 0.0 3.0 0 55 56 500
r 0.569752 1 2 tcp 540 ------- 2 0.0 3.0 0 55 56 500
+ 0.569752 2 3 tcp 540 ------- 2 0.0 3.0 0 55 56 500
- 0.569752 2 3 tcp 540 ------- 2 0.0 3.0 0 55 56 500
+ 0.57 0 1 tcp 540 ------- 2 0.0 3.0 0 56 57 500
- 0.57 0 1 tcp 540 ------- 2 0.0 3.0 0 56 57 500
r 0.571184 2 3 tcp 540 ------- 2 0.0 3.0 0 55 56 500
r 0.571432 0 1 tcp 540 ------- 2 0.0 3.0 0 56 57 500
+ 0.571432 1 2 tcp 540 ------- 2 0.0 3.0 0 56 57 500
- 0.571432 1 2 tcp 540 ------- 2 0.0 3.0 0 56 57 500
r 0.579752 1 2 tcp 540 ------- 2 0.0 3.0 0 56 57 500
+ 0.579752 2 3 tcp 540 ------- 2 0.0 3.0 0 56 57 500
- 0.579752 2 3 tcp 540 ------- 2 0.0 3.0 0 56 57 500
+ 0.58 0 1 tcp 540 ------- 2 0.0 3.0 0 57 58 500
- 0.58 0 1 tcp 540 ------- 2 0.0 3.0 0 57 58 500
r 0.581184 2 3 tcp 540 ------- 2 0.0 3.0 0 56 57 500
r 0.581432 0 1 tcp 540 ------- 2 0.0 3.0 0 57 58 500
+ 0.581432 1 2 tcp 540 ------- 2 0.0 3.0 0 57 58 500
- 0.581432 1 2 tcp 540 ------- 2 0.0 3.0 0 57 58 500
r 0.589752 1 2 tcp 540 ------- 2 0.0 3.0 0 57 58 500
+ 0.589752 2 3 tcp 540 ------- 2 0.0 3.0 0 57 58 500
- 0.589752 2 3 tcp 540 ------- 2 0.0 3.0 0 57 58 500
+ 0.59 0 1 tcp 540 ------- 2 0.0 3.0 0 58 59 500
- 0.59 0 1 tcp 540 ------- 2 0.0 3.0 0 58 59 500
r 0.591184 2 3 tcp 540 ------- 2 0.0 3.0 0 57 58 500
r 0.591432 0 1 tcp 540 ------- 2 0.0 3.0 0 58 59 500
+ 0.591432 1 2 tcp 540 ------- 2 0.0 3.0 0 58 59 500
- 0.591432 1 2 tcp 540 ------- 2 0.0 3.0 0 58 59 500
r 0.599752 1 2 tcp 540 ------- 2 0.0 3.0 0 58 59 500
+ 0.599752 2 3 tcp 540 ------- 2 0.0 3.0 0 58 59 500
- 0.599752 2 3 tcp 540 ------- 2 0.0 3.0 0 58 59 500
+ 0.6 0 1 tcp 540 ------- 2 0.0 3.0 0 59 60 500
- 0.6 0 1 tcp 540 ------- 2 0.0 3.0 0 59 60 500
r 0.601184 2 3 tcp 540 ------- 2 0.0 3.0 0 58 59 500
r 0.601432 0 1 tcp 540 ------- 2 0.0 3.0 0 59 60 500
+ 0.601432 1 2 tcp 540 ------- 2 0.0 3.0 0 59 60 500
- 0.601432 1 2 tcp 540 ------- 2 0.0 3.0 0 59 60 500
r 0.609752 1 2 tcp 540 ------- 2 0.0 3.0 0 59 60 500
+ 0.609752 2 3 tcp 540 ------- 2 0.0 3.0 0 59 60 500
- 0.609752 2 3 tcp 540 ------- 2 0.0 3.0 0 59 60 500
+ 0.61 0 1 tcp 540 ------- 2 0.0 3.0 0 60 61 500
- 0.61 0 1 tcp 540 ------- 2 0.0 3.0 0 60 61 500
r 0.611184 2 3 tcp 540 ------- 2 0.0 3.0 0 59 60 500
r 0.611432 0 1 tcp 540 ------- 2 0.0 3.0 0 60 61 500
+ 0.611432 1 2 tcp 540 ------- 2 0.0 3.0 0 60 61 500
- 0.611432 1 2 tcp 540 ------- 2 0.0 3.0 0 60 61 500
r 0.619752 1 2 tcp 540 ------- 2 0.0 3.0 0 60 61 500
+ 0.619752 2 3 tcp 540 ------- 2 0.0 3.0 0 60 61 500
- 0.619752 2 3 tcp 540 ------- 2 0.0 3.0 0 60 61 500
+ 0.62 0 1 tcp 540 ------- 2 0.0 3.0 0 61 62 500
- 0.62 0 1 tcp 540 ------- 2 0.0 3.0 0 61 62 500
r 0.621184 2 3 tcp 540 ------- 2 0.0 3.0 0 60 61 500
r 0.621432 0 1 tcp 540 ------- 2 0.0 3.0 0 61 62 500
+ 0.621432 1 2 tcp 540 ------- 2 0.0 3.0 0 61 62 500
- 0.621432 1 2 tcp 540 ------- 2 0.0 3.0 0 61 62 500
r 0.629752 1 2 tcp 540 ------- 2 0.0 3.0 0 61 62 500
+ 0.629752 2 3 tcp 540 ------- 2 0.0 3.0 0 61 62 500
- 0.629752 2 3 tcp 540 ------- 2 0.0 3.0 0 61 62 500
+ 0.63 0 1 tcp 540 ------- 2 0.0 3.0 0 62 63 500
- 0.63 0 1 tcp 540 ------- 2 0.0 3.0 0 62 63 500
r 0.631184 2 3 tcp 540 ------- 2 0.0 3.0 0 61 62 500
r 0.631432 0 1 tcp 540 ------- 2 0.0 3.0 0 62 63 500
+ 0.631432 1 2 tcp 540 ------- 2 0.0 3.0 0 62 63 500
- 0.631432 1 2 tcp 540 ------- 2 0.0 3.0 0 62 63 500
r 0.639752 1 2 tcp 540 ------- 2 0.0 3.0 0 62 63 500
+ 0.639752 2 3 tcp 540 ------- 2 0.0 3.0 0 62 63 500
- 0.639752 2 3 tcp 540 ------- 2 0.0 3.0 0 62 63 500
+ 0.64 0 1 tcp 540 ------- 2 0.0 3.0 0 63 64 500
- 0.64 0 1 tcp 540 ------- 2 0.0 3.0 0 63 64 500
r 0.641184 2 3 tcp 540 ------- 2 0.0 3.0 0 62 63 500
r 0.641432 0 1 tcp 540 ------- 2 0.0 3.0 0 63 64 500
+ 0.641432 1 2 tcp 540 ------- 2 0.0 3.0 0 63 64 500
- 0.641432 1 2 tcp 540 ------- 2 0.0 3.0 0 63 64 500
r 0.649752 1 2 tcp 540 ------- 2 0.0 3.0 0 63 64 500
+ 0.649752 2 3 tcp 540 ------- 2 0.0 3.0 0 63 64 500
- 0.649752 2 3 tcp 540 ------- 2 0.0 3.0 0 63 64 500
+ 0.65 0 1 tcp 540 ------- 2 0.0 3.0 0 64 65 500
- 0.65 0 1 tcp 540 ------- 2 0.0 3.0 0 64 65 500
r 0.651184 2 3 tcp 540 ------- 2 0.0 3.0 0 63 64 500
r 0.651432 0 1 tcp 540 ------- 2 0.0 3.0 0 64 65 500